# vtk DataFile Version 3.0
#This file was generated by the deal.II library on 2015/4/9 at 19:23:45
ASCII
DATASET UNSTRUCTURED_GRID

POINTS 1840 double
-1 -1 0
-0.75 -1 0
-1 -0.75 0
-0.75 -0.75 0
0.75 -1 0
1 -1 0
0.75 -0.75 0
1 -0.75 0
-1 0.75 0
-0.75 0.75 0
-1 1 0
-0.75 1 0
0.75 0.75 0
1 0.75 0
0.75 1 0
1 1 0
-0.5 -1 0
-0.375 -1 0
-0.5 -0.875 0
-0.375 -0.875 0
-0.375 -1 0
-0.25 -1 0
-0.375 -0.875 0
-0.25 -0.875 0
-0.5 -0.875 0
-0.375 -0.875 0
-0.5 -0.75 0
-0.375 -0.75 0
-0.375 -0.875 0
-0.25 -0.875 0
-0.375 -0.75 0
-0.25 -0.75 0
-1 -0.5 0
-0.875 -0.5 0
-1 -0.375 0
-0.875 -0.375 0
-0.875 -0.5 0
-0.75 -0.5 0
-0.875 -0.375 0
-0.75 -0.375 0
-1 -0.375 0
-0.875 -0.375 0
-1 -0.25 0
-0.875 -0.25 0
-0.875 -0.375 0
-0.75 -0.375 0
-0.875 -0.25 0
-0.75 -0.25 0
0 -1 0
0.125 -1 0
0 -0.875 0
0.125 -0.875 0
0.125 -1 0
0.25 -1 0
0.125 -0.875 0
0.25 -0.875 0
0 -0.875 0
0.125 -0.875 0
0 -0.75 0
0.125 -0.75 0
0.125 -0.875 0
0.25 -0.875 0
0.125 -0.75 0
0.25 -0.75 0
0.25 -1 0
0.375 -1 0
0.25 -0.875 0
0.375 -0.875 0
0.375 -1 0
0.5 -1 0
0.375 -0.875 0
0.5 -0.875 0
0.25 -0.875 0
0.375 -0.875 0
0.25 -0.75 0
0.375 -0.75 0
0.375 -0.875 0
0.5 -0.875 0
0.375 -0.75 0
0.5 -0.75 0
0.75 -0.5 0
0.875 -0.5 0
0.75 -0.375 0
0.875 -0.375 0
0.875 -0.5 0
1 -0.5 0
0.875 -0.375 0
1 -0.375 0
0.75 -0.375 0
0.875 -0.375 0
0.75 -0.25 0
0.875 -0.25 0
0.875 -0.375 0
1 -0.375 0
0.875 -0.25 0
1 -0.25 0
0.625 -0.25 0
0.75 -0.25 0
0.625 -0.125 0
0.75 -0.125 0
0.75 -0.25 0
0.875 -0.25 0
0.75 -0.125 0
0.875 -0.125 0
0.875 -0.25 0
1 -0.25 0
0.875 -0.125 0
1 -0.125 0
0.875 -0.125 0
1 -0.125 0
0.875 0 0
1 0 0
-1 0 0
-0.875 0 0
-1 0.125 0
-0.875 0.125 0
-0.875 0 0
-0.75 0 0
-0.875 0.125 0
-0.75 0.125 0
-1 0.125 0
-0.875 0.125 0
-1 0.25 0
-0.875 0.25 0
-0.875 0.125 0
-0.75 0.125 0
-0.875 0.25 0
-0.75 0.25 0
-1 0.25 0
-0.875 0.25 0
-1 0.375 0
-0.875 0.375 0
-0.875 0.25 0
-0.75 0.25 0
-0.875 0.375 0
-0.75 0.375 0
-1 0.375 0
-0.875 0.375 0
-1 0.5 0
-0.875 0.5 0
-0.875 0.375 0
-0.75 0.375 0
-0.875 0.5 0
-0.75 0.5 0
-0.5 0.75 0
-0.375 0.75 0
-0.5 0.875 0
-0.375 0.875 0
-0.375 0.75 0
-0.25 0.75 0
-0.375 0.875 0
-0.25 0.875 0
-0.5 0.875 0
-0.375 0.875 0
-0.5 1 0
-0.375 1 0
-0.375 0.875 0
-0.25 0.875 0
-0.375 1 0
-0.25 1 0
-0.25 0.75 0
-0.125 0.75 0
-0.25 0.875 0
-0.125 0.875 0
-0.125 0.75 0
0 0.75 0
-0.125 0.875 0
0 0.875 0
-0.25 0.875 0
-0.125 0.875 0
-0.25 1 0
-0.125 1 0
-0.125 0.875 0
0 0.875 0
-0.125 1 0
0 1 0
-0.75 -1 0
-0.625 -1 0
-0.75 -0.875 0
-0.625 -0.875 0
-0.625 -1 0
-0.5 -1 0
-0.625 -0.875 0
-0.5 -0.875 0
-0.75 -0.875 0
-0.625 -0.875 0
-0.75 -0.75 0
-0.625 -0.75 0
-0.625 -0.875 0
-0.5 -0.875 0
-0.625 -0.75 0
-0.5 -0.75 0
-1 -0.75 0
-0.875 -0.75 0
-1 -0.625 0
-0.875 -0.625 0
-0.875 -0.75 0
-0.75 -0.75 0
-0.875 -0.625 0
-0.75 -0.625 0
-1 -0.625 0
-0.875 -0.625 0
-1 -0.5 0
-0.875 -0.5 0
-0.875 -0.625 0
-0.75 -0.625 0
-0.875 -0.5 0
-0.75 -0.5 0
-0.75 -0.75 0
-0.625 -0.75 0
-0.75 -0.625 0
-0.625 -0.625 0
0.5 -1 0
0.625 -1 0
0.5 -0.875 0
0.625 -0.875 0
0.625 -1 0
0.75 -1 0
0.625 -0.875 0
0.75 -0.875 0
0.5 -0.875 0
0.625 -0.875 0
0.5 -0.75 0
0.625 -0.75 0
0.625 -0.875 0
0.75 -0.875 0
0.625 -0.75 0
0.75 -0.75 0
0.625 -0.75 0
0.75 -0.75 0
0.625 -0.625 0
0.75 -0.625 0
0.75 -0.75 0
0.875 -0.75 0
0.75 -0.625 0
0.875 -0.625 0
0.875 -0.75 0
1 -0.75 0
0.875 -0.625 0
1 -0.625 0
0.75 -0.625 0
0.875 -0.625 0
0.75 -0.5 0
0.875 -0.5 0
0.875 -0.625 0
1 -0.625 0
0.875 -0.5 0
1 -0.5 0
-1 0.5 0
-0.875 0.5 0
-1 0.625 0
-0.875 0.625 0
-0.875 0.5 0
-0.75 0.5 0
-0.875 0.625 0
-0.75 0.625 0
-1 0.625 0
-0.875 0.625 0
-1 0.75 0
-0.875 0.75 0
-0.875 0.625 0
-0.75 0.625 0
-0.875 0.75 0
-0.75 0.75 0
-0.75 0.625 0
-0.625 0.625 0
-0.75 0.75 0
-0.625 0.75 0
-0.75 0.75 0
-0.625 0.75 0
-0.75 0.875 0
-0.625 0.875 0
-0.625 0.75 0
-0.5 0.75 0
-0.625 0.875 0
-0.5 0.875 0
-0.75 0.875 0
-0.625 0.875 0
-0.75 1 0
-0.625 1 0
-0.625 0.875 0
-0.5 0.875 0
-0.625 1 0
-0.5 1 0
-0.25 -1 0
-0.125 -1 0
-0.25 -0.875 0
-0.125 -0.875 0
-0.125 -1 0
0 -1 0
-0.125 -0.875 0
0 -0.875 0
-0.25 -0.875 0
-0.125 -0.875 0
-0.25 -0.75 0
-0.125 -0.75 0
-0.125 -0.875 0
0 -0.875 0
-0.125 -0.75 0
0 -0.75 0
0.875 0 0
1 0 0
0.875 0.125 0
1 0.125 0
0.875 0.125 0
1 0.125 0
0.875 0.25 0
1 0.25 0
0.75 0.25 0
0.875 0.25 0
0.75 0.375 0
0.875 0.375 0
0.875 0.25 0
1 0.25 0
0.875 0.375 0
1 0.375 0
0.75 0.375 0
0.875 0.375 0
0.75 0.5 0
0.875 0.5 0
0.875 0.375 0
1 0.375 0
0.875 0.5 0
1 0.5 0
0 0.75 0
0.125 0.75 0
0 0.875 0
0.125 0.875 0
0 0.875 0
0.125 0.875 0
0 1 0
0.125 1 0
0.125 0.875 0
0.25 0.875 0
0.125 1 0
0.25 1 0
0.625 0.625 0
0.75 0.625 0
0.625 0.75 0
0.75 0.75 0
0.75 0.5 0
0.875 0.5 0
0.75 0.625 0
0.875 0.625 0
0.875 0.5 0
1 0.5 0
0.875 0.625 0
1 0.625 0
0.75 0.625 0
0.875 0.625 0
0.75 0.75 0
0.875 0.75 0
0.875 0.625 0
1 0.625 0
0.875 0.75 0
1 0.75 0
0.625 0.75 0
0.75 0.75 0
0.625 0.875 0
0.75 0.875 0
0.5 0.875 0
0.625 0.875 0
0.5 1 0
0.625 1 0
0.625 0.875 0
0.75 0.875 0
0.625 1 0
0.75 1 0
-1 -0.25 0
-0.875 -0.25 0
-1 -0.125 0
-0.875 -0.125 0
-0.875 -0.25 0
-0.75 -0.25 0
-0.875 -0.125 0
-0.75 -0.125 0
-1 -0.125 0
-0.875 -0.125 0
-1 0 0
-0.875 0 0
-0.875 -0.125 0
-0.75 -0.125 0
-0.875 0 0
-0.75 0 0
0.125 -0.75 0
0.25 -0.75 0
0.125 -0.625 0
0.25 -0.625 0
-0.75 0.125 0
-0.625 0.125 0
-0.75 0.25 0
-0.625 0.25 0
-0.5 -0.5 0
-0.375 -0.5 0
-0.5 -0.375 0
-0.375 -0.375 0
-0.375 -0.5 0
-0.25 -0.5 0
-0.375 -0.375 0
-0.25 -0.375 0
-0.5 -0.375 0
-0.375 -0.375 0
-0.5 -0.25 0
-0.375 -0.25 0
-0.375 -0.375 0
-0.25 -0.375 0
-0.375 -0.25 0
-0.25 -0.25 0
-0.25 -0.5 0
-0.125 -0.5 0
-0.25 -0.375 0
-0.125 -0.375 0
-0.125 -0.5 0
0 -0.5 0
-0.125 -0.375 0
0 -0.375 0
-0.25 -0.375 0
-0.125 -0.375 0
-0.25 -0.25 0
-0.125 -0.25 0
-0.125 -0.375 0
0 -0.375 0
-0.125 -0.25 0
0 -0.25 0
-0.5 -0.25 0
-0.375 -0.25 0
-0.5 -0.125 0
-0.375 -0.125 0
-0.375 -0.25 0
-0.25 -0.25 0
-0.375 -0.125 0
-0.25 -0.125 0
-0.5 -0.125 0
-0.375 -0.125 0
-0.5 0 0
-0.375 0 0
-0.375 -0.125 0
-0.25 -0.125 0
-0.375 0 0
-0.25 0 0
0.25 0.875 0
0.375 0.875 0
0.25 1 0
0.375 1 0
0.375 0.875 0
0.5 0.875 0
0.375 1 0
0.5 1 0
-0.25 -0.25 0
-0.125 -0.25 0
-0.25 -0.125 0
-0.125 -0.125 0
-0.125 -0.25 0
0 -0.25 0
-0.125 -0.125 0
0 -0.125 0
-0.25 -0.125 0
-0.125 -0.125 0
-0.25 0 0
-0.125 0 0
-0.125 -0.125 0
0 -0.125 0
-0.125 0 0
0 0 0
0 -0.5 0
0.125 -0.5 0
0 -0.375 0
0.125 -0.375 0
0.125 -0.5 0
0.25 -0.5 0
0.125 -0.375 0
0.25 -0.375 0
0 -0.375 0
0.125 -0.375 0
0 -0.25 0
0.125 -0.25 0
0.125 -0.375 0
0.25 -0.375 0
0.125 -0.25 0
0.25 -0.25 0
0.25 -0.5 0
0.375 -0.5 0
0.25 -0.375 0
0.375 -0.375 0
0.375 -0.5 0
0.5 -0.5 0
0.375 -0.375 0
0.5 -0.375 0
0.25 -0.375 0
0.375 -0.375 0
0.25 -0.25 0
0.375 -0.25 0
0.375 -0.375 0
0.5 -0.375 0
0.375 -0.25 0
0.5 -0.25 0
0 -0.25 0
0.125 -0.25 0
0 -0.125 0
0.125 -0.125 0
0.125 -0.25 0
0.25 -0.25 0
0.125 -0.125 0
0.25 -0.125 0
0 -0.125 0
0.125 -0.125 0
0 0 0
0.125 0 0
0.125 -0.125 0
0.25 -0.125 0
0.125 0 0
0.25 0 0
0.25 -0.25 0
0.375 -0.25 0
0.25 -0.125 0
0.375 -0.125 0
0.375 -0.25 0
0.5 -0.25 0
0.375 -0.125 0
0.5 -0.125 0
0.25 -0.125 0
0.375 -0.125 0
0.25 0 0
0.375 0 0
0.375 -0.125 0
0.5 -0.125 0
0.375 0 0
0.5 0 0
-0.5 0 0
-0.375 0 0
-0.5 0.125 0
-0.375 0.125 0
-0.375 0 0
-0.25 0 0
-0.375 0.125 0
-0.25 0.125 0
-0.5 0.125 0
-0.375 0.125 0
-0.5 0.25 0
-0.375 0.25 0
-0.375 0.125 0
-0.25 0.125 0
-0.375 0.25 0
-0.25 0.25 0
-0.25 0 0
-0.125 0 0
-0.25 0.125 0
-0.125 0.125 0
-0.125 0 0
0 0 0
-0.125 0.125 0
0 0.125 0
-0.25 0.125 0
-0.125 0.125 0
-0.25 0.25 0
-0.125 0.25 0
-0.125 0.125 0
0 0.125 0
-0.125 0.25 0
0 0.25 0
-0.5 0.25 0
-0.375 0.25 0
-0.5 0.375 0
-0.375 0.375 0
-0.375 0.25 0
-0.25 0.25 0
-0.375 0.375 0
-0.25 0.375 0
-0.5 0.375 0
-0.375 0.375 0
-0.5 0.5 0
-0.375 0.5 0
-0.375 0.375 0
-0.25 0.375 0
-0.375 0.5 0
-0.25 0.5 0
-0.25 0.25 0
-0.125 0.25 0
-0.25 0.375 0
-0.125 0.375 0
-0.125 0.25 0
0 0.25 0
-0.125 0.375 0
0 0.375 0
-0.25 0.375 0
-0.125 0.375 0
-0.25 0.5 0
-0.125 0.5 0
-0.125 0.375 0
0 0.375 0
-0.125 0.5 0
0 0.5 0
0 0 0
0.125 0 0
0 0.125 0
0.125 0.125 0
0.125 0 0
0.25 0 0
0.125 0.125 0
0.25 0.125 0
0 0.125 0
0.125 0.125 0
0 0.25 0
0.125 0.25 0
0.125 0.125 0
0.25 0.125 0
0.125 0.25 0
0.25 0.25 0
0.25 0 0
0.375 0 0
0.25 0.125 0
0.375 0.125 0
0.375 0 0
0.5 0 0
0.375 0.125 0
0.5 0.125 0
0.25 0.125 0
0.375 0.125 0
0.25 0.25 0
0.375 0.25 0
0.375 0.125 0
0.5 0.125 0
0.375 0.25 0
0.5 0.25 0
0 0.25 0
0.125 0.25 0
0 0.375 0
0.125 0.375 0
0.125 0.25 0
0.25 0.25 0
0.125 0.375 0
0.25 0.375 0
0 0.375 0
0.125 0.375 0
0 0.5 0
0.125 0.5 0
0.125 0.375 0
0.25 0.375 0
0.125 0.5 0
0.25 0.5 0
0.25 0.25 0
0.375 0.25 0
0.25 0.375 0
0.375 0.375 0
0.375 0.25 0
0.5 0.25 0
0.375 0.375 0
0.5 0.375 0
0.25 0.375 0
0.375 0.375 0
0.25 0.5 0
0.375 0.5 0
0.375 0.375 0
0.5 0.375 0
0.375 0.5 0
0.5 0.5 0
0.5 0 0
0.625 0 0
0.5 0.125 0
0.625 0.125 0
0.625 0 0
0.75 0 0
0.625 0.125 0
0.75 0.125 0
0.5 0.125 0
0.625 0.125 0
0.5 0.25 0
0.625 0.25 0
0.625 0.125 0
0.75 0.125 0
0.625 0.25 0
0.75 0.25 0
0.25 0.5 0
0.375 0.5 0
0.25 0.625 0
0.375 0.625 0
0.375 0.5 0
0.5 0.5 0
0.375 0.625 0
0.5 0.625 0
0.25 0.625 0
0.375 0.625 0
0.25 0.75 0
0.375 0.75 0
0.375 0.625 0
0.5 0.625 0
0.375 0.75 0
0.5 0.75 0
0.5 -0.25 0
0.5625 -0.25 0
0.5 -0.1875 0
0.5625 -0.1875 0
0.5625 -0.25 0
0.625 -0.25 0
0.5625 -0.1875 0
0.625 -0.1875 0
0.5 -0.1875 0
0.5625 -0.1875 0
0.5 -0.125 0
0.5625 -0.125 0
0.5625 -0.1875 0
0.625 -0.1875 0
0.5625 -0.125 0
0.625 -0.125 0
0.5 -0.125 0
0.5625 -0.125 0
0.5 -0.0625 0
0.5625 -0.0625 0
0.5625 -0.125 0
0.625 -0.125 0
0.5625 -0.0625 0
0.625 -0.0625 0
0.5 -0.0625 0
0.5625 -0.0625 0
0.5 0 0
0.5625 0 0
0.5625 -0.0625 0
0.625 -0.0625 0
0.5625 0 0
0.625 0 0
0.625 -0.125 0
0.6875 -0.125 0
0.625 -0.0625 0
0.6875 -0.0625 0
0.6875 -0.125 0
0.75 -0.125 0
0.6875 -0.0625 0
0.75 -0.0625 0
0.625 -0.0625 0
0.6875 -0.0625 0
0.625 0 0
0.6875 0 0
0.6875 -0.0625 0
0.75 -0.0625 0
0.6875 0 0
0.75 0 0
0.75 -0.125 0
0.8125 -0.125 0
0.75 -0.0625 0
0.8125 -0.0625 0
0.8125 -0.125 0
0.875 -0.125 0
0.8125 -0.0625 0
0.875 -0.0625 0
0.75 -0.0625 0
0.8125 -0.0625 0
0.75 0 0
0.8125 0 0
0.8125 -0.0625 0
0.875 -0.0625 0
0.8125 0 0
0.875 0 0
-0.5 0.5 0
-0.4375 0.5 0
-0.5 0.5625 0
-0.4375 0.5625 0
-0.4375 0.5 0
-0.375 0.5 0
-0.4375 0.5625 0
[...]
POINT_DATA 1840
SCALARS U double 1
LOOKUP_TABLE default
-1 -1 -1 -0.735268 -1 -1 -0.734132 -1 -1 -0.734147 -1 -1 -0.733836 -1 -1 -1 -1 -1 -0.77576 -0.75352 -1 -1 -0.75352 -0.741555 -0.77576 -0.75352 -0.5737 -0.532048 -0.75352 -0.741555 -0.532048 -0.50918 -1 -0.77576 -1 -0.753521 -0.77576 -0.573701 -0.753521 -0.53205 -1 -0.753521 -1 -0.741556 -0.753521 -0.53205 -0.741556 -0.509185 -1 -1 -0.734009 -0.734784 -1 -1 -0.734784 -0.740108 -0.734009 -0.734784 -0.495141 -0.496694 -0.734784 -0.740108 -0.496694 -0.506638 -1 -1 -0.740108 -0.752327 -1 -1 -0.752327 -0.77474 -0.740108 -0.752327 -0.506638 -0.530187 -0.752327 -0.77474 -0.530187 -0.572022 -0.571644 -0.774482 -0.529358 -0.751731 -0.774482 -1 -0.751731 -1 -0.529358 -0.751731 -0.50477 -0.738894 -0.751731 -1 -0.738894 -1 -0.320967 -0.50477 -0.305405 -0.49378 -0.50477 -0.738894 -0.49378 -0.731551 -0.738894 -1 -0.731551 -1 -0.731551 -1 -0.730345 -1 -1 -0.734011 -1 -0.734786 -0.734011 -0.495156 -0.734786 -0.496712 -1 -0.734786 -1 -0.74011 -0.734786 -0.496712 -0.74011 -0.506655 -1 -0.74011 -1 -0.75233 -0.74011 -0.506655 -0.75233 -0.530202 -1 -0.75233 -1 -0.774743 -0.75233 -0.530202 -0.774743 -0.572037 -0.571746 -0.529699 -0.774583 -0.752091 -0.529699 -0.506493 -0.752091 -0.739924 -0.774583 -0.752091 -1 -1 -0.752091 -0.739924 -1 -1 -0.506493 -0.49581 -0.739924 -0.734082 -0.49581 -0.492339 -0.734082 -0.732349 -0.739924 -0.734082 -1 -1 -0.734082 -0.732349 -1 -1 -1 -1 -0.867634 -0.811596 -1 -1 -0.811596 -0.77576 -0.867634 -0.811596 -0.735268 -0.641481 -0.811596 -0.77576 -0.641481 -0.5737 -1 -0.867634 -1 -0.811596 -0.867634 -0.735268 -0.811596 -0.641481 -1 -0.811596 -1 -0.77576 -0.811596 -0.641481 -0.77576 -0.573701 -0.735268 -0.641481 -0.641481 -0.507118 -1 -1 -0.77474 -0.810787 -1 -1 -0.810787 -0.867066 -0.77474 -0.810787 -0.572022 -0.63996 -0.810787 -0.867066 -0.63996 -0.734132 -0.63996 -0.734132 -0.505111 -0.639853 -0.734132 -0.867066 -0.639853 -0.8107 -0.867066 -1 -0.8107 -1 -0.639853 -0.8107 -0.571644 -0.774482 -0.8107 -1 -0.774482 -1 -1 -0.774743 -1 -0.810793 -0.774743 -0.572037 -0.810793 -0.639975 -1 -0.810793 -1 -0.867074 -0.810793 -0.639975 -0.867074 -0.734147 -0.639975 -0.505163 -0.734147 -0.63991 -0.734147 -0.63991 -0.867074 -0.810723 -0.63991 -0.571746 -0.810723 -0.774583 -0.867074 -0.810723 -1 -1 -0.810723 -0.774583 -1 -1 -1 -1 -0.741555 -0.735869 -1 -1 -0.735869 -0.734009 -0.741555 -0.735869 -0.50918 -0.498613 -0.735869 -0.734009 -0.498613 -0.495141 -0.730345 -1 -0.731084 -1 -0.731084 -1 -0.736545 -1 -0.501479 -0.736545 -0.528013 -0.750477 -0.736545 -1 -0.750477 -1 -0.528013 -0.750477 -0.570658 -0.773971 -0.750477 -1 -0.773971 -1 -0.492339 -0.4952 -0.732349 -0.73236 -0.732349 -0.73236 -1 -1 -0.73236 -0.738215 -1 -1 -0.504519 -0.639619 -0.639628 -0.733836 -0.570658 -0.773971 -0.639619 -0.810457 -0.773971 -1 -0.810457 -1 -0.639619 -0.810457 -0.733836 -0.866918 -0.810457 -1 -0.866918 -1 -0.639628 -0.733836 -0.808872 -0.866918 -0.772624 -0.808872 -1 -1 -0.808872 -0.866918 -1 -1 -1 -0.741556 -1 -0.735871 -0.741556 -0.509185 -0.735871 -0.498623 -1 -0.735871 -1 -0.734011 -0.735871 -0.498623 -0.734011 -0.495156 -0.496694 -0.506638 -0.307801 -0.322413 -0.496712 -0.307868 -0.506655 -0.322481 -0.302962 -0.234358 -0.234365 -0.159339 -0.234358 -0.195929 -0.159339 -0.116881 -0.234365 -0.159339 -0.195958 -0.116914 -0.159339 -0.116881 -0.116914 -0.0717172 -0.195929 -0.178222 -0.116881 -0.0967006 -0.178222 -0.172278 -0.0967006 -0.0904105 -0.116881 -0.0967006 -0.0717172 -0.0503223 -0.0967006 -0.0904105 -0.0503223 -0.0435896 -0.195958 -0.116914 -0.178293 -0.0968114 -0.116914 -0.0717172 -0.0968114 -0.0504318 -0.178293 -0.0968114 -0.172407 -0.0906451 -0.0968114 -0.0504318 -0.0906451 -0.0439151 -0.738215 -0.74997 -1 -1 -0.74997 -0.772624 -1 -1 -0.0717172 -0.0503223 -0.0504318 -0.0282788 -0.0503223 -0.0435896 -0.0282788 -0.0212175 -0.0504318 -0.0282788 -0.0439151 -0.0215113 -0.0282788 -0.0212175 -0.0215113 -0.0141823 -0.172278 -0.176592 -0.0904105 -0.095591 -0.176592 -0.193519 -0.095591 -0.114962 -0.0904105 -0.095591 -0.0435896 -0.049237 -0.095591 -0.114962 -0.049237 -0.0697104 -0.193519 -0.231894 -0.114962 -0.156861 -0.231894 -0.300496 -0.156861 -0.231387 -0.114962 -0.156861 -0.0697104 -0.11413 -0.156861 -0.231387 -0.11413 -0.192251 -0.0435896 -0.049237 -0.0212175 -0.0268764 -0.049237 -0.0697104 -0.0268764 -0.0479116 -0.0212175 -0.0268764 -0.0141823 -0.0196669 -0.0268764 -0.0479116 -0.0196669 -0.0406952 -0.0697104 -0.11413 -0.0479116 -0.0934113 -0.11413 -0.192251 -0.0934113 -0.174613 -0.0479116 -0.0934113 -0.0406952 -0.0867411 -0.0934113 -0.174613 -0.0867411 -0.167966 -0.172407 -0.0906451 -0.176776 -0.0959734 -0.0906451 -0.0439151 -0.0959734 -0.0498454 -0.176776 -0.0959734 -0.193738 -0.115464 -0.0959734 -0.0498454 -0.115464 -0.0705573 -0.0439151 -0.0215113 -0.0498454 -0.0275957 -0.0215113 -0.0141823 -0.0275957 -0.0201751 -0.0498454 -0.0275957 -0.0705573 -0.0490034 -0.0275957 -0.0201751 -0.0490034 -0.0417786 -0.193738 -0.115464 -0.232134 -0.157454 -0.115464 -0.0705573 -0.157454 -0.115126 -0.232134 -0.157454 -0.300719 -0.23208 -0.157454 -0.115126 -0.23208 -0.193586 -0.0705573 -0.0490034 -0.115126 -0.0948149 -0.0490034 -0.0417786 -0.0948149 -0.0882703 -0.115126 -0.0948149 -0.193586 -0.175812 -0.0948149 -0.0882703 -0.175812 -0.170088 -0.0141823 -0.0196669 -0.0201751 -0.0254095 -0.0196669 -0.0406952 -0.0254095 -0.0461405 -0.0201751 -0.0254095 -0.0417786 -0.0468386 -0.0254095 -0.0461405 -0.0468386 -0.0669249 -0.0406952 -0.0867411 -0.0461405 -0.0916238 -0.0867411 -0.167966 -0.0916238 -0.174053 -0.0461405 -0.0916238 -0.0669249 -0.111403 -0.0916238 -0.174053 -0.111403 -0.190048 -0.0417786 -0.0468386 -0.0882703 -0.0930821 -0.0468386 -0.0669249 -0.0930821 -0.112346 -0.0882703 -0.0930821 -0.170088 -0.175188 -0.0930821 -0.112346 -0.175188 -0.191706 -0.0669249 -0.111403 -0.112346 -0.154282 -0.111403 -0.190048 -0.154282 -0.229738 -0.112346 -0.154282 -0.191706 -0.231896 -0.154282 -0.229738 -0.231896 -0.299072 -0.167966 -0.301255 -0.174053 -0.30608 -0.301255 -0.489835 -0.30608 -0.492743 -0.174053 -0.30608 -0.190048 -0.319387 -0.30608 -0.492743 -0.319387 -0.501479 -0.191706 -0.231896 -0.321472 -0.355211 -0.231896 -0.299072 -0.355211 -0.412045 -0.321472 -0.355211 -0.504508 -0.528598 -0.355211 -0.412045 -0.528598 -0.57023 -0.192251 -0.252582 -0.183432 -0.242726 -0.252582 -0.320967 -0.242726 -0.313186 -0.183432 -0.242726 -0.174613 -0.235493 -0.242726 -0.313186 -0.235493 -0.305405 -0.174613 -0.235493 -0.171289 -0.232761 -0.235493 -0.305405 -0.232761 -0.304224 -0.171289 -0.232761 -0.167966 -0.23461 -0.232761 -0.304224 -0.23461 -0.301255 -0.305405 -0.399593 -0.304224 -0.395052 -0.399593 -0.49378 -0.395052 -0.492299 -0.304224 -0.395052 -0.301255 -0.395545 -0.395052 -0.492299 -0.395545 -0.489835 -0.49378 -0.612665 -0.492299 -0.608846 -0.612665 -0.731551 -0.608846 -0.730948 -0.492299 -0.608846 -0.489835 -0.607142 -0.608846 -0.730948 -0.607142 -0.730345 -0.300719 -0.2664 -0.354299 -0.3201 -0.2664 -0.23208 -0.3201 -0.290628 -0.354299 -0.3201 -0.413978 -0.382285 -0.3201 -0.290628 -0.382285 -0.355381 -0.23208 -0.212833 -0.290628 -0.270568 -0.212833 -0.193586 -0.270568 -0.254928 -0.290628 -0.270568 -0.355381 -0.337756 -0.270568 -0.254928 -0.337756 -0.323614 -0.413978 -0.382285 -0.48923 -0.462204 -0.382285 -0.355381 -0.462204 -0.438873 -0.48923 -0.462204 -0.571746 -0.550723 -0.462204 -0.438873 -0.550723 -0.529699 -0.355381 -0.337756 -0.438873 -0.423269 -0.337756 -0.323614 -0.423269 -0.410829 -0.438873 -0.423269 -0.529699 -0.518096 -0.423269 -0.410829 -0.518096 -0.506493 -0.193586 -0.184699 -0.254928 -0.245196 -0.184699 -0.175812 -0.245196 -0.238026 -0.254928 -0.245196 -0.323614 -0.314581 -0.245196 -0.238026 -0.314581 -0.308162 -0.175812 -0.17295 -0.238026 -0.234312 -0.17295 -0.170088 -0.234312 -0.233103 -0.238026 -0.234312 -0.308162 -0.305046 -0.234312 -0.233103 -0.305046 -0.30368 -0.323614 -0.314581 -0.410829 -0.403032 -0.314581 -0.308162 -0.403032 -0.397584 -0.410829 -0.403032 -0.506493 -0.501152 -0.403032 -0.397584 -0.501152 -0.49581 -0.308162 -0.305046 -0.397584 -0.394811 -0.305046 -0.30368 -0.394811 -0.393663 -0.397584 -0.394811 -0.49581 -0.494075 -0.394811 -0.393663 -0.494075 -0.492339 -0.641481 -0.607591 -0.5743 -0.529565 -0.607591 -0.5737 -0.529565 -0.491445 -0.5743 -0.529565 -0.507118 -0.458945 -0.529565 -0.491445 -0.458945 -0.416239 -0.641481 -0.5743 -0.607591 -0.529565 -0.5743 -0.507118 -0.529565 -0.458945 -0.607591 -0.529565 -0.573701 -0.491446 -0.529565 -0.458945 -0.491446 -0.41624 -0.507118 -0.458945 -0.458945 -0.405145 -0.458945 -0.416239 -0.405145 -0.356576 -0.458945 -0.405145 -0.41624 -0.356577 -0.405145 -0.356576 -0.356577 -0.302962 -0.572022 -0.605991 -0.489412 -0.527664 -0.605991 -0.63996 -0.527664 -0.572536 -0.489412 -0.527664 -0.414078 -0.456855 -0.527664 -0.572536 -0.456855 -0.505111 -0.414078 -0.456855 -0.354235 -0.402856 -0.456855 -0.505111 -0.402856 -0.45673 -0.354235 -0.402856 -0.300496 -0.354057 -0.402856 -0.45673 -0.354057 -0.413785 -0.505111 -0.572482 -0.45673 -0.527468 -0.572482 -0.639853 -0.527468 -0.605749 -0.45673 -0.527468 -0.413785 -0.489053 -0.527468 -0.605749 -0.489053 -0.571644 -0.572037 -0.489443 -0.606006 -0.527694 -0.489443 -0.414139 -0.527694 -0.456916 -0.606006 -0.527694 -0.639975 -0.572569 -0.527694 -0.456916 -0.572569 -0.505163 -0.414139 -0.354363 -0.456916 -0.40297 -0.354363 -0.300719 -0.40297 -0.354299 -0.456916 -0.40297 -0.505163 -0.456839 -0.40297 -0.354299 -0.456839 -0.413978 -0.505163 -0.456839 -0.572536 -0.527573 -0.456839 -0.413978 -0.527573 -0.48923 -0.572536 -0.527573 -0.63991 -0.605828 -0.527573 -0.48923 -0.605828 -0.571746 -0.489835 -0.607142 -0.491289 -0.607457 -0.607142 -0.730345 -0.607457 -0.730715 -0.491289 -0.607457 -0.492743 -0.608544 -0.607457 -0.730715 -0.608544 -0.731084 -0.492743 -0.608544 -0.497111 -0.612367 -0.608544 -0.731084 -0.612367 -0.733815 -0.497111 -0.612367 -0.501479 -0.619012 -0.612367 -0.733815 -0.619012 -0.736545 -0.190048 -0.254718 -0.209893 -0.267873 -0.254718 -0.319387 -0.267873 -0.335759 -0.209893 -0.267873 -0.229738 -0.288123 -0.267873 -0.335759 -0.288123 -0.352863 -0.319387 -0.410433 -0.335759 -0.420414 -0.410433 -0.501479 -0.420414 -0.514746 -0.335759 -0.420414 -0.352863 -0.436589 -0.420414 -0.514746 -0.436589 -0.528013 -0.229738 -0.288123 -0.264405 -0.318609 -0.288123 -0.352863 -0.318609 -0.380964 -0.264405 -0.318609 -0.299072 -0.352983 -0.318609 -0.380964 -0.352983 -0.413025 -0.352863 -0.436589 -0.380964 -0.460587 -0.436589 -0.528013 -0.460587 -0.549336 -0.380964 -0.460587 -0.413025 -0.488106 -0.460587 -0.549336 -0.488106 -0.570658 -0.170088 -0.172638 -0.233103 -0.234285 -0.172638 -0.175188 -0.234285 -0.237411 -0.233103 -0.234285 -0.30368 -0.305202 -0.234285 -0.237411 -0.305202 -0.307569 -0.175188 -0.183447 -0.237411 -0.244405 -0.183447 -0.191706 -0.244405 -0.256589 -0.237411 -0.244405 -0.307569 -0.314642 -0.244405 -0.256589 -0.314642 -0.321472 -0.30368 -0.305202 -0.393663 -0.394558 -0.305202 -0.307569 -0.394558 -0.397351 -0.393663 -0.394558 -0.492339 -0.493769 -0.394558 -0.397351 -0.493769 -0.4952 -0.307569 -0.314642 -0.397351 -0.403604 -0.314642 -0.321472 -0.403604 -0.41299 -0.397351 -0.403604 -0.4952 -0.499803 -0.403604 -0.41299 -0.499803 -0.504508 -0.5737 -0.552874 -0.491445 -0.46457 -0.552874 -0.532048 -0.46457 -0.44138 -0.491445 -0.46457 -0.416239 -0.384688 -0.46457 -0.44138 -0.384688 -0.357932 -0.532048 -0.520614 -0.44138 -0.425938 -0.520614 -0.50918 -0.425938 -0.413596 -0.44138 -0.425938 -0.357932 -0.340425 -0.425938 -0.413596 -0.340425 -0.326393 -0.416239 -0.384688 -0.356576 -0.32246 -0.384688 -0.357932 -0.32246 -0.293063 -0.356576 -0.32246 -0.302962 -0.26866 -0.32246 -0.293063 -0.26866 -0.234358 -0.357932 -0.340425 -0.293063 -0.273089 -0.340425 -0.326393 -0.273089 -0.25754 -0.293063 -0.273089 -0.234358 -0.215144 -0.273089 -0.25754 -0.215144 -0.195929 -0.4952 -0.499803 -0.61378 -0.615153 -0.499803 -0.504508 -0.615153 -0.618823 -0.61378 -0.615153 -0.73236 -0.735288 -0.615153 -0.618823 -0.735288 -0.738215 -0.299072 -0.352983 -0.355559 -0.401693 -0.352983 -0.413025 -0.401693 -0.45595 -0.355559 -0.401693 -0.412045 -0.456209 -0.401693 -0.45595 -0.456209 -0.504519 -0.413025 -0.488106 -0.45595 -0.527044 -0.488106 -0.570658 -0.527044 -0.605138 -0.45595 -0.527044 -0.504519 -0.572069 -0.527044 -0.605138 -0.572069 -0.639619 -0.412045 -0.456209 -0.491138 -0.527417 -0.456209 -0.504519 -0.527417 -0.572073 -0.491138 -0.527417 -0.57023 -0.603094 -0.527417 -0.572073 -0.603094 -0.639628 -0.57023 -0.603094 -0.669402 -0.694828 -0.603094 -0.639628 -0.694828 -0.72425 -0.669402 -0.694828 -0.772624 -0.790748 -0.694828 -0.72425 -0.790748 -0.808872 -0.50918 -0.503896 -0.413596 -0.405878 -0.503896 -0.498613 -0.405878 -0.400543 -0.413596 -0.405878 -0.326393 -0.317416 -0.405878 -0.400543 -0.317416 -0.310984 -0.498613 -0.496877 -0.400543 -0.39762 -0.496877 -0.495141 -0.39762 -0.396242 -0.400543 -0.39762 -0.310984 -0.307732 -0.39762 -0.396242 -0.307732 -0.306238 -0.326393 -0.317416 -0.25754 -0.247849 -0.317416 -0.310984 -0.247849 -0.240665 -0.25754 -0.247849 -0.195929 -0.187076 -0.247849 -0.240665 -0.187076 -0.178222 -0.310984 -0.307732 -0.240665 -0.236893 -0.307732 -0.306238 -0.236893 -0.235367 -0.240665 -0.236893 -0.178222 -0.17525 -0.236893 -0.235367 -0.17525 -0.172278 -0.573701 -0.491446 -0.552875 -0.464572 -0.491446 -0.41624 -0.464572 -0.384691 -0.552875 -0.464572 -0.53205 -0.441384 -0.464572 -0.384691 -0.441384 -0.357937 -0.41624 -0.356577 -0.384691 -0.322463 -0.356577 -0.302962 -0.322463 -0.268663 -0.384691 -0.322463 -0.357937 -0.29307 -0.322463 -0.268663 -0.29307 -0.234365 -0.53205 -0.441384 -0.520617 -0.425944 -0.441384 -0.357937 -0.425944 -0.340435 -0.520617 -0.425944 -0.509185 -0.413605 -0.425944 -0.340435 -0.413605 -0.326408 -0.357937 -0.29307 -0.340435 -0.273103 -0.29307 -0.234365 -0.273103 -0.215162 -0.340435 -0.273103 -0.326408 -0.257561 -0.273103 -0.215162 -0.257561 -0.195958 -0.509185 -0.413605 -0.503904 -0.405892 -0.413605 -0.326408 -0.405892 -0.317439 -0.503904 -0.405892 -0.498623 -0.400563 -0.405892 -0.317439 -0.400563 -0.311016 -0.326408 -0.257561 -0.317439 -0.247884 -0.257561 -0.195958 -0.247884 -0.187126 -0.317439 -0.247884 -0.311016 -0.240716 -0.247884 -0.187126 -0.240716 -0.178293 -0.498623 -0.400563 -0.496889 -0.397646 -0.400563 -0.311016 -0.397646 -0.307774 -0.496889 -0.397646 -0.495156 -0.396273 -0.397646 -0.307774 -0.396273 -0.306291 -0.311016 -0.240716 -0.307774 -0.23696 -0.240716 -0.178293 -0.23696 -0.17535 -0.307774 -0.23696 -0.306291 -0.235455 -0.23696 -0.17535 -0.235455 -0.172407 -0.495141 -0.495917 -0.396242 -0.3972 -0.495917 -0.496694 -0.3972 -0.402248 -0.396242 -0.3972 -0.306238 -0.306638 -0.3972 -0.402248 -0.306638 -0.307801 -0.306238 -0.306638 -0.235367 -0.235616 -0.306638 -0.307801 -0.235616 -0.237874 -0.235367 -0.235616 -0.172278 -0.174435 -0.235616 -0.237874 -0.174435 -0.176592 -0.307801 -0.315107 -0.237874 -0.244227 -0.315107 -0.322413 -0.244227 -0.253997 -0.237874 -0.244227 -0.176592 -0.185055 -0.244227 -0.253997 -0.185055 -0.193519 -0.506638 -0.518412 -0.414525 -0.424094 -0.518412 -0.530187 -0.424094 -0.439215 -0.414525 -0.424094 -0.322413 -0.337776 -0.424094 -0.439215 -0.337776 -0.355654 -0.530187 -0.551104 -0.439215 -0.462569 -0.551104 -0.572022 -0.462569 -0.489412 -0.439215 -0.462569 -0.355654 -0.382456 -0.462569 -0.489412 -0.382456 -0.414078 -0.322413 -0.337776 -0.253997 -0.270247 -0.337776 -0.355654 -0.270247 -0.290635 -0.253997 -0.270247 -0.193519 -0.212706 -0.270247 -0.290635 -0.212706 -0.231894 -0.355654 -0.382456 -0.290635 -0.320105 -0.382456 -0.414078 -0.320105 -0.354235 -0.290635 -0.320105 -0.231894 -0.266195 -0.320105 -0.354235 -0.266195 -0.300496 -0.300496 -0.354057 -0.265941 -0.31971 -0.354057 -0.413785 -0.31971 -0.381917 -0.265941 -0.31971 -0.231387 -0.289979 -0.31971 -0.381917 -0.289979 -0.35487 -0.413785 -0.489053 -0.381917 -0.461973 -0.489053 -0.571644 -0.461973 -0.550501 -0.381917 -0.461973 -0.35487 -0.438338 -0.461973 -0.550501 -0.438338 -0.529358 -0.231387 -0.289979 -0.211819 -0.269179 -0.289979 -0.35487 -0.269179 -0.336549 -0.211819 -0.269179 -0.192251 -0.252582 -0.269179 -0.336549 -0.252582 -0.320967 -0.35487 -0.438338 -0.336549 -0.422857 -0.438338 -0.529358 -0.422857 -0.517064 -0.336549 -0.422857 -0.320967 -0.412869 -0.422857 -0.517064 -0.412869 -0.50477 -0.495156 -0.396273 -0.495934 -0.397236 -0.396273 -0.306291 -0.397236 -0.306699 -0.495934 -0.397236 -0.496712 -0.40229 -0.397236 -0.306699 -0.40229 -0.307868 -0.306291 -0.235455 -0.306699 -0.235719 -0.235455 -0.172407 -0.235719 -0.174592 -0.306699 -0.235719 -0.307868 -0.237991 -0.235719 -0.174592 -0.237991 -0.176776 -0.307868 -0.237991 -0.315175 -0.244356 -0.237991 -0.176776 -0.244356 -0.185257 -0.315175 -0.244356 -0.322481 -0.254129 -0.244356 -0.185257 -0.254129 -0.193738 -0.506655 -0.414568 -0.518428 -0.42413 -0.414568 -0.322481 -0.42413 -0.337845 -0.518428 -0.42413 -0.530202 -0.439248 -0.42413 -0.337845 -0.439248 -0.35572 -0.322481 -0.254129 -0.337845 -0.270385 -0.254129 -0.193738 -0.270385 -0.212936 -0.337845 -0.270385 -0.35572 -0.290769 -0.270385 -0.212936 -0.290769 -0.232134 -0.530202 -0.439248 -0.551119 -0.4626 -0.439248 -0.35572 -0.4626 -0.38252 -0.551119 -0.4626 -0.572037 -0.489443 -0.4626 -0.38252 -0.489443 -0.414139 -0.35572 -0.290769 -0.38252 -0.320235 -0.290769 -0.232134 -0.320235 -0.266427 -0.38252 -0.320235 -0.414139 -0.354363 -0.320235 -0.266427 -0.354363 -0.300719 -0.504508 -0.516553 -0.618823 -0.626635 -0.516553 -0.528598 -0.626635 -0.636512 -0.618823 -0.626635 -0.738215 -0.744092 -0.626635 -0.636512 -0.744092 -0.74997 -0.528598 -0.549414 -0.636512 -0.651855 -0.549414 -0.57023 -0.651855 -0.669402 -0.636512 -0.651855 -0.74997 -0.761297 -0.651855 -0.669402 -0.761297 -0.772624 
