# vtk DataFile Version 3.0
#This file was generated by the deal.II library on 2015/4/9 at 19:23:45
ASCII
DATASET UNSTRUCTURED_GRID

POINTS 1396 double
-0.5 -0.5 0
-0.25 -0.5 0
-0.5 -0.25 0
-0.25 -0.25 0
-0.25 -0.5 0
0 -0.5 0
-0.25 -0.25 0
0 -0.25 0
-0.5 -0.25 0
-0.25 -0.25 0
-0.5 0 0
-0.25 0 0
-0.25 -0.25 0
0 -0.25 0
-0.25 0 0
0 0 0
0 -0.5 0
0.25 -0.5 0
0 -0.25 0
0.25 -0.25 0
0.25 -0.5 0
0.5 -0.5 0
0.25 -0.25 0
0.5 -0.25 0
0 -0.25 0
0.25 -0.25 0
0 0 0
0.25 0 0
0.25 -0.25 0
0.5 -0.25 0
0.25 0 0
0.5 0 0
-0.5 0 0
-0.25 0 0
-0.5 0.25 0
-0.25 0.25 0
-0.25 0 0
0 0 0
-0.25 0.25 0
0 0.25 0
-0.5 0.25 0
-0.25 0.25 0
-0.5 0.5 0
-0.25 0.5 0
-0.25 0.25 0
0 0.25 0
-0.25 0.5 0
0 0.5 0
0 0 0
0.25 0 0
0 0.25 0
0.25 0.25 0
0.25 0 0
0.5 0 0
0.25 0.25 0
0.5 0.25 0
0 0.25 0
0.25 0.25 0
0 0.5 0
0.25 0.5 0
0.25 0.25 0
0.5 0.25 0
0.25 0.5 0
0.5 0.5 0
0.5 0 0
0.75 0 0
0.5 0.25 0
0.75 0.25 0
0.25 0.5 0
0.5 0.5 0
0.25 0.75 0
0.5 0.75 0
-0.375 -1 0
-0.25 -1 0
-0.375 -0.875 0
-0.25 -0.875 0
-0.375 -0.875 0
-0.25 -0.875 0
-0.375 -0.75 0
-0.25 -0.75 0
-1 -0.375 0
-0.875 -0.375 0
-1 -0.25 0
-0.875 -0.25 0
-0.875 -0.375 0
-0.75 -0.375 0
-0.875 -0.25 0
-0.75 -0.25 0
0 -1 0
0.125 -1 0
0 -0.875 0
0.125 -0.875 0
0 -0.875 0
0.125 -0.875 0
0 -0.75 0
0.125 -0.75 0
0.375 -1 0
0.5 -1 0
0.375 -0.875 0
0.5 -0.875 0
0.375 -0.875 0
0.5 -0.875 0
0.375 -0.75 0
0.5 -0.75 0
0.75 -0.5 0
0.875 -0.5 0
0.75 -0.375 0
0.875 -0.375 0
0.875 -0.5 0
1 -0.5 0
0.875 -0.375 0
1 -0.375 0
0.875 -0.375 0
1 -0.375 0
0.875 -0.25 0
1 -0.25 0
0.5 -0.25 0
0.625 -0.25 0
0.5 -0.125 0
0.625 -0.125 0
0.625 -0.25 0
0.75 -0.25 0
0.625 -0.125 0
0.75 -0.125 0
0.5 -0.125 0
0.625 -0.125 0
0.5 0 0
0.625 0 0
0.625 -0.125 0
0.75 -0.125 0
0.625 0 0
0.75 0 0
0.75 -0.125 0
0.875 -0.125 0
0.75 0 0
0.875 0 0
0.875 -0.125 0
1 -0.125 0
0.875 0 0
1 0 0
-1 0 0
-0.875 0 0
-1 0.125 0
-0.875 0.125 0
-0.875 0 0
-0.75 0 0
-0.875 0.125 0
-0.75 0.125 0
-1 0.375 0
-0.875 0.375 0
-1 0.5 0
-0.875 0.5 0
-0.875 0.375 0
-0.75 0.375 0
-0.875 0.5 0
-0.75 0.5 0
-0.5 0.5 0
-0.375 0.5 0
-0.5 0.625 0
-0.375 0.625 0
-0.375 0.5 0
-0.25 0.5 0
-0.375 0.625 0
-0.25 0.625 0
-0.5 0.625 0
-0.375 0.625 0
-0.5 0.75 0
-0.375 0.75 0
-0.375 0.625 0
-0.25 0.625 0
-0.375 0.75 0
-0.25 0.75 0
-0.25 0.5 0
-0.125 0.5 0
-0.25 0.625 0
-0.125 0.625 0
-0.125 0.5 0
0 0.5 0
-0.125 0.625 0
0 0.625 0
-0.25 0.625 0
-0.125 0.625 0
-0.25 0.75 0
-0.125 0.75 0
-0.125 0.625 0
0 0.625 0
-0.125 0.75 0
0 0.75 0
-0.5 0.75 0
-0.375 0.75 0
-0.5 0.875 0
-0.375 0.875 0
-0.5 0.875 0
-0.375 0.875 0
-0.5 1 0
-0.375 1 0
-0.125 0.75 0
0 0.75 0
-0.125 0.875 0
0 0.875 0
-0.125 0.875 0
0 0.875 0
-0.125 1 0
0 1 0
-0.75 -1 0
-0.625 -1 0
-0.75 -0.875 0
-0.625 -0.875 0
-1 -0.75 0
-0.875 -0.75 0
-1 -0.625 0
-0.875 -0.625 0
-0.625 -0.75 0
-0.5 -0.75 0
-0.625 -0.625 0
-0.5 -0.625 0
-0.75 -0.625 0
-0.625 -0.625 0
-0.75 -0.5 0
-0.625 -0.5 0
-0.625 -0.625 0
-0.5 -0.625 0
-0.625 -0.5 0
-0.5 -0.5 0
0.625 -1 0
0.75 -1 0
0.625 -0.875 0
0.75 -0.875 0
0.5 -0.75 0
0.625 -0.75 0
0.5 -0.625 0
0.625 -0.625 0
0.5 -0.625 0
0.625 -0.625 0
0.5 -0.5 0
0.625 -0.5 0
0.625 -0.625 0
0.75 -0.625 0
0.625 -0.5 0
0.75 -0.5 0
0.875 -0.75 0
1 -0.75 0
0.875 -0.625 0
1 -0.625 0
-1 0.625 0
-0.875 0.625 0
-1 0.75 0
-0.875 0.75 0
-0.75 0.5 0
-0.625 0.5 0
-0.75 0.625 0
-0.625 0.625 0
-0.625 0.5 0
-0.5 0.5 0
-0.625 0.625 0
-0.5 0.625 0
-0.625 0.625 0
-0.5 0.625 0
-0.625 0.75 0
-0.5 0.75 0
-0.75 0.875 0
-0.625 0.875 0
-0.75 1 0
-0.625 1 0
-0.25 -1 0
-0.125 -1 0
-0.25 -0.875 0
-0.125 -0.875 0
-0.125 -1 0
0 -1 0
-0.125 -0.875 0
0 -0.875 0
-0.25 -0.875 0
-0.125 -0.875 0
-0.25 -0.75 0
-0.125 -0.75 0
-0.125 -0.875 0
0 -0.875 0
-0.125 -0.75 0
0 -0.75 0
0.75 0 0
0.875 0 0
0.75 0.125 0
0.875 0.125 0
0.875 0 0
1 0 0
0.875 0.125 0
1 0.125 0
0.75 0.125 0
0.875 0.125 0
0.75 0.25 0
0.875 0.25 0
0.875 0.125 0
1 0.125 0
0.875 0.25 0
1 0.25 0
0.5 0.25 0
0.625 0.25 0
0.5 0.375 0
0.625 0.375 0
0.625 0.25 0
0.75 0.25 0
0.625 0.375 0
0.75 0.375 0
0.5 0.375 0
0.625 0.375 0
0.5 0.5 0
0.625 0.5 0
0.625 0.375 0
0.75 0.375 0
0.625 0.5 0
0.75 0.5 0
0.75 0.375 0
0.875 0.375 0
0.75 0.5 0
0.875 0.5 0
0.875 0.375 0
1 0.375 0
0.875 0.5 0
1 0.5 0
0 0.5 0
0.125 0.5 0
0 0.625 0
0.125 0.625 0
0.125 0.5 0
0.25 0.5 0
0.125 0.625 0
0.25 0.625 0
0 0.625 0
0.125 0.625 0
0 0.75 0
0.125 0.75 0
0.125 0.625 0
0.25 0.625 0
0.125 0.75 0
0.25 0.75 0
-0.5 -0.75 0
-0.375 -0.75 0
-0.5 -0.625 0
-0.375 -0.625 0
-0.375 -0.75 0
-0.25 -0.75 0
-0.375 -0.625 0
-0.25 -0.625 0
-0.5 -0.625 0
-0.375 -0.625 0
-0.5 -0.5 0
-0.375 -0.5 0
-0.375 -0.625 0
-0.25 -0.625 0
-0.375 -0.5 0
-0.25 -0.5 0
0.125 0.75 0
0.25 0.75 0
0.125 0.875 0
0.25 0.875 0
0.125 0.875 0
0.25 0.875 0
0.125 1 0
0.25 1 0
0.5 0.5 0
0.625 0.5 0
0.5 0.625 0
0.625 0.625 0
0.625 0.5 0
0.75 0.5 0
0.625 0.625 0
0.75 0.625 0
0.5 0.625 0
0.625 0.625 0
0.5 0.75 0
0.625 0.75 0
0.875 0.625 0
1 0.625 0
0.875 0.75 0
1 0.75 0
0.5 0.75 0
0.625 0.75 0
0.5 0.875 0
0.625 0.875 0
0.5 0.875 0
0.625 0.875 0
0.5 1 0
0.625 1 0
0.625 0.875 0
0.75 0.875 0
0.625 1 0
0.75 1 0
-0.25 -0.75 0
-0.125 -0.75 0
-0.25 -0.625 0
-0.125 -0.625 0
-0.125 -0.75 0
0 -0.75 0
-0.125 -0.625 0
0 -0.625 0
-0.25 -0.625 0
-0.125 -0.625 0
-0.25 -0.5 0
-0.125 -0.5 0
-0.125 -0.625 0
0 -0.625 0
-0.125 -0.5 0
0 -0.5 0
-0.75 -0.5 0
-0.625 -0.5 0
-0.75 -0.375 0
-0.625 -0.375 0
-0.625 -0.5 0
-0.5 -0.5 0
-0.625 -0.375 0
-0.5 -0.375 0
-0.75 -0.375 0
-0.625 -0.375 0
-0.75 -0.25 0
-0.625 -0.25 0
-0.625 -0.375 0
-0.5 -0.375 0
-0.625 -0.25 0
-0.5 -0.25 0
-1 -0.25 0
-0.875 -0.25 0
-1 -0.125 0
-0.875 -0.125 0
-0.875 -0.25 0
-0.75 -0.25 0
-0.875 -0.125 0
-0.75 -0.125 0
-1 -0.125 0
-0.875 -0.125 0
-1 0 0
-0.875 0 0
-0.875 -0.125 0
-0.75 -0.125 0
-0.875 0 0
-0.75 0 0
-0.75 -0.25 0
-0.625 -0.25 0
-0.75 -0.125 0
-0.625 -0.125 0
-0.625 -0.25 0
-0.5 -0.25 0
-0.625 -0.125 0
-0.5 -0.125 0
-0.75 -0.125 0
-0.625 -0.125 0
-0.75 0 0
-0.625 0 0
-0.625 -0.125 0
-0.5 -0.125 0
-0.625 0 0
-0.5 0 0
0 -0.75 0
0.125 -0.75 0
0 -0.625 0
0.125 -0.625 0
0.125 -0.75 0
0.25 -0.75 0
0.125 -0.625 0
0.25 -0.625 0
0 -0.625 0
0.125 -0.625 0
0 -0.5 0
0.125 -0.5 0
0.125 -0.625 0
0.25 -0.625 0
0.125 -0.5 0
0.25 -0.5 0
0.25 -0.75 0
0.375 -0.75 0
0.25 -0.625 0
0.375 -0.625 0
0.375 -0.75 0
0.5 -0.75 0
0.375 -0.625 0
0.5 -0.625 0
0.25 -0.625 0
0.375 -0.625 0
0.25 -0.5 0
0.375 -0.5 0
0.375 -0.625 0
0.5 -0.625 0
0.375 -0.5 0
0.5 -0.5 0
0.5 -0.5 0
0.625 -0.5 0
0.5 -0.375 0
0.625 -0.375 0
0.625 -0.5 0
0.75 -0.5 0
0.625 -0.375 0
0.75 -0.375 0
0.5 -0.375 0
0.625 -0.375 0
0.5 -0.25 0
0.625 -0.25 0
0.625 -0.375 0
0.75 -0.375 0
0.625 -0.25 0
0.75 -0.25 0
-0.75 0 0
-0.625 0 0
-0.75 0.125 0
-0.625 0.125 0
-0.625 0 0
-0.5 0 0
-0.625 0.125 0
-0.5 0.125 0
-0.75 0.125 0
-0.625 0.125 0
-0.75 0.25 0
-0.625 0.25 0
-0.625 0.125 0
-0.5 0.125 0
-0.625 0.25 0
-0.5 0.25 0
-0.75 0.25 0
-0.625 0.25 0
-0.75 0.375 0
-0.625 0.375 0
-0.625 0.25 0
-0.5 0.25 0
-0.625 0.375 0
-0.5 0.375 0
-0.75 0.375 0
-0.625 0.375 0
-0.75 0.5 0
-0.625 0.5 0
-0.625 0.375 0
-0.5 0.375 0
-0.625 0.5 0
-0.5 0.5 0
-1 -1 0
-0.875 -1 0
-1 -0.875 0
-0.875 -0.875 0
-0.875 -1 0
-0.75 -1 0
-0.875 -0.875 0
-0.75 -0.875 0
-1 -0.875 0
-0.875 -0.875 0
-1 -0.75 0
-0.875 -0.75 0
-0.875 -0.875 0
-0.75 -0.875 0
-0.875 -0.75 0
-0.75 -0.75 0
0.75 -1 0
0.875 -1 0
0.75 -0.875 0
0.875 -0.875 0
0.875 -1 0
1 -1 0
0.875 -0.875 0
1 -0.875 0
0.75 -0.875 0
0.875 -0.875 0
0.75 -0.75 0
0.875 -0.75 0
0.875 -0.875 0
1 -0.875 0
0.875 -0.75 0
1 -0.75 0
-1 0.75 0
-0.875 0.75 0
-1 0.875 0
-0.875 0.875 0
-0.875 0.75 0
-0.75 0.75 0
-0.875 0.875 0
-0.75 0.875 0
-1 0.875 0
-0.875 0.875 0
-1 1 0
-0.875 1 0
-0.875 0.875 0
-0.75 0.875 0
-0.875 1 0
-0.75 1 0
0.25 0.75 0
0.375 0.75 0
0.25 0.875 0
0.375 0.875 0
0.375 0.75 0
0.5 0.75 0
0.375 0.875 0
0.5 0.875 0
0.25 0.875 0
0.375 0.875 0
0.25 1 0
0.375 1 0
0.375 0.875 0
0.5 0.875 0
0.375 1 0
0.5 1 0
0.75 0.75 0
0.875 0.75 0
0.75 0.875 0
0.875 0.875 0
0.875 0.75 0
1 0.75 0
0.875 0.875 0
1 0.875 0
0.75 0.875 0
0.875 0.875 0
0.75 1 0
0.875 1 0
0.875 0.875 0
1 0.875 0
0.875 1 0
1 1 0
-0.5 -1 0
-0.4375 -1 0
-0.5 -0.9375 0
-0.4375 -0.9375 0
-0.4375 -1 0
-0.375 -1 0
-0.4375 -0.9375 0
-0.375 -0.9375 0
-0.5 -0.9375 0
-0.4375 -0.9375 0
-0.5 -0.875 0
-0.4375 -0.875 0
-0.4375 -0.9375 0
-0.375 -0.9375 0
-0.4375 -0.875 0
-0.375 -0.875 0
-0.5 -0.875 0
-0.4375 -0.875 0
-0.5 -0.8125 0
-0.4375 -0.8125 0
-0.4375 -0.875 0
-0.375 -0.875 0
-0.4375 -0.8125 0
-0.375 -0.8125 0
-0.5 -0.8125 0
-0.4375 -0.8125 0
-0.5 -0.75 0
-0.4375 -0.75 0
-0.4375 -0.8125 0
-0.375 -0.8125 0
-0.4375 -0.75 0
-0.375 -0.75 0
-1 -0.5 0
-0.9375 -0.5 0
-1 -0.4375 0
-0.9375 -0.4375 0
-0.9375 -0.5 0
-0.875 -0.5 0
-0.9375 -0.4375 0
-0.875 -0.4375 0
-1 -0.4375 0
-0.9375 -0.4375 0
-1 -0.375 0
-0.9375 -0.375 0
-0.9375 -0.4375 0
-0.875 -0.4375 0
-0.9375 -0.375 0
-0.875 -0.375 0
-0.875 -0.5 0
-0.8125 -0.5 0
-0.875 -0.4375 0
-0.8125 -0.4375 0
-0.8125 -0.5 0
-0.75 -0.5 0
-0.8125 -0.4375 0
-0.75 -0.4375 0
-0.875 -0.4375 0
-0.8125 -0.4375 0
-0.875 -0.375 0
-0.8125 -0.375 0
-0.8125 -0.4375 0
-0.75 -0.4375 0
-0.8125 -0.375 0
-0.75 -0.375 0
0.125 -1 0
0.1875 -1 0
0.125 -0.9375 0
0.1875 -0.9375 0
0.1875 -1 0
0.25 -1 0
0.1875 -0.9375 0
0.25 -0.9375 0
0.125 -0.9375 0
0.1875 -0.9375 0
0.125 -0.875 0
0.1875 -0.875 0
0.1875 -0.9375 0
0.25 -0.9375 0
0.1875 -0.875 0
0.25 -0.875 0
0.125 -0.875 0
0.1875 -0.875 0
0.125 -0.8125 0
0.1875 -0.8125 0
0.1875 -0.875 0
0.25 -0.875 0
0.1875 -0.8125 0
0.25 -0.8125 0
0.125 -0.8125 0
0.1875 -0.8125 0
0.125 -0.75 0
0.1875 -0.75 0
0.1875 -0.8125 0
0.25 -0.8125 0
0.1875 -0.75 0
0.25 -0.75 0
0.25 -1 0
0.3125 -1 0
0.25 -0.9375 0
0.3125 -0.9375 0
0.3125 -1 0
0.375 -1 0
0.3125 -0.9375 0
0.375 -0.9375 0
0.25 -0.9375 0
0.3125 -0.9375 0
0.25 -0.875 0
0.3125 -0.875 0
0.3125 -0.9375 0
0.375 -0.9375 0
0.3125 -0.875 0
0.375 -0.875 0
0.25 -0.875 0
0.3125 -0.875 0
0.25 -0.8125 0
0.3125 -0.8125 0
0.3125 -0.875 0
0.375 -0.875 0
0.3125 -0.8125 0
0.375 -0.8125 0
0.25 -0.8125 0
0.3125 -0.8125 0
0.25 -0.75 0
0.3125 -0.75 0
0.3125 -0.8125 0
0.375 -0.8125 0
0.3125 -0.75 0
0.375 -0.75 0
0.75 -0.375 0
0.8125 -0.375 0
0.75 -0.3125 0
0.8125 -0.3125 0
0.8125 -0.375 0
0.875 -0.375 0
0.8125 -0.3125 0
0.875 -0.3125 0
[...]
POINT_DATA 1396
SCALARS U double 1
LOOKUP_TABLE default
0.000143303 -0.000264833 -0.000256091 0.000108947 -0.000264833 -0.000204634 0.000108947 -6.55477e-05 -0.000256091 0.000108947 -0.000255026 -6.71108e-06 0.000108947 -6.55477e-05 -6.71108e-06 0.000305224 -0.000204634 -4.20042e-05 -6.55477e-05 0.00053627 -4.20042e-05 -8.55191e-05 0.00053627 -0.0030418 -6.55477e-05 0.00053627 0.000305224 -0.00207818 0.00053627 -0.0030418 -0.00207818 0.0139194 -0.000255026 -6.71108e-06 0.000264948 -0.000293659 -6.71108e-06 0.000305224 -0.000293659 0.00116606 0.000264948 -0.000293659 -0.00132266 0.000938621 -0.000293659 0.00116606 0.000938621 -0.00375881 0.000305224 -0.00207818 0.00116606 -0.00460348 -0.00207818 0.0139194 -0.00460348 0.00877309 0.00116606 -0.00460348 -0.00375881 0.0136205 -0.00460348 0.00877309 0.0136205 0.0124679 0.0139194 -0.0758249 0.00877309 -0.0667309 0.0136205 0.0124679 -0.0753263 -0.0744703 -1 -1 -0.419895 -0.431617 -0.419895 -0.431617 -0.0906528 -0.100237 -1 -0.419895 -1 -0.431617 -0.419895 -0.0906528 -0.431617 -0.100237 -1 -1 -0.431631 -0.419858 -0.431631 -0.419858 -0.100089 -0.0913861 -1 -1 -0.416218 -0.417439 -0.416218 -0.417439 -0.0893905 -0.0868911 -0.0877207 -0.418225 -0.0877849 -0.417675 -0.418225 -1 -0.417675 -1 -0.417675 -1 -0.418818 -1 -0.0030418 -0.00409741 0.00543881 0.00370081 -0.00409741 -0.0841282 0.00370081 -0.0926965 0.00543881 0.00370081 0.0139194 -0.0309528 0.00370081 -0.0926965 -0.0309528 -0.0758249 -0.0926965 -0.4202 -0.0758249 -0.432391 -0.4202 -1 -0.432391 -1 -1 -0.431631 -1 -0.419858 -0.431631 -0.10009 -0.419858 -0.091387 -1 -0.416218 -1 -0.417438 -0.416218 -0.0893907 -0.417438 -0.0868945 -0.00132266 -0.00019202 0.0009631 -0.00021305 -0.00019202 0.000938621 -0.00021305 -0.0060792 0.0009631 -0.00021305 -0.0868985 -0.0893962 -0.00021305 -0.0060792 -0.0893962 -0.0874709 0.000938621 -0.00141009 -0.0060792 -0.000255202 -0.00141009 -0.00375881 -0.000255202 0.00136441 -0.0060792 -0.000255202 -0.0874709 -0.0902179 -0.000255202 0.00136441 -0.0902179 -0.0858946 -0.0868985 -0.0893962 -0.417441 -0.416197 -0.417441 -0.416197 -1 -1 -0.0902179 -0.0858946 -0.416171 -0.4184 -0.416171 -0.4184 -1 -1 -1 -1 -0.479895 -0.410886 -1 -0.479895 -1 -0.410886 -0.0951307 -0.088827 -0.00915616 -0.0067802 -0.0951307 -0.00915616 -0.088827 -0.00678011 -0.00915616 -0.0067802 -0.00678011 0.000143303 -1 -1 -0.412131 -0.480144 -0.0868911 -0.0904413 0.000901034 -0.00624157 0.000901034 -0.00624157 -8.55191e-05 0.00117525 -0.00624157 -0.0907255 0.00117525 -0.0877207 -0.480133 -1 -0.412558 -1 -1 -0.41213 -1 -0.480148 -0.0868945 0.000959348 -0.0904149 -0.00621168 0.000959348 -0.00132266 -0.00621168 0.0009631 -0.00621168 0.0009631 -0.090414 -0.0868985 -0.480148 -0.41213 -1 -1 -1 -1 -0.431617 -0.434367 -1 -1 -0.434367 -0.431631 -0.431617 -0.434367 -0.100237 -0.101431 -0.434367 -0.431631 -0.101431 -0.100089 -0.0758249 -0.432391 -0.0712779 -0.432258 -0.432391 -1 -0.432258 -1 -0.0712779 -0.432258 -0.0667309 -0.423136 -0.432258 -1 -0.423136 -1 0.00877309 -0.0289789 0.0106205 0.00469747 -0.0289789 -0.0667309 0.00469747 -0.089045 0.0106205 0.00469747 0.0124679 -0.00191693 0.00469747 -0.089045 -0.00191693 -0.0868122 -0.089045 -0.417519 -0.0868122 -0.417782 -0.417519 -1 -0.417782 -1 -0.00375881 0.00493087 0.00136441 0.00453476 0.00493087 0.0136205 0.00453476 -0.0308529 0.00136441 0.00453476 -0.0858946 -0.0910723 0.00453476 -0.0308529 -0.0910723 -0.0753263 -0.088827 -0.0906528 -0.0067802 -0.000581791 -0.0906528 -0.100237 -0.000581791 0.00242471 -0.0067802 -0.000581791 0.000143303 -6.0765e-05 -0.000581791 0.00242471 -6.0765e-05 -0.000264833 -0.0910723 -0.0753263 -0.42061 -0.433093 -0.42061 -0.433093 -1 -1 0.0124679 -0.00191693 -0.0310012 0.00347725 -0.00191693 -0.0868122 0.00347725 -0.091128 -0.0310012 0.00347725 -0.0744703 -0.101576 -0.412154 -1 -0.480311 -1 -0.0744703 -0.101576 -0.435983 -0.417091 -0.435983 -0.417091 -1 -1 -0.417091 -0.481766 -1 -1 -0.100237 -0.101431 0.00242471 0.00238712 -0.101431 -0.100089 0.00238712 0.00240256 0.00242471 0.00238712 -0.000264833 -0.000234734 0.00238712 0.00240256 -0.000234734 -0.000204634 -0.088827 -0.00678011 -0.0906528 -0.000581841 -0.00678011 0.000143303 -0.000581841 -5.63937e-05 -0.0906528 -0.000581841 -0.100237 0.00242369 -0.000581841 -5.63937e-05 0.00242369 -0.000256091 -1 -0.431617 -1 -0.434367 -0.431617 -0.100237 -0.434367 -0.101431 -1 -0.434367 -1 -0.431631 -0.434367 -0.101431 -0.431631 -0.10009 -0.100237 0.00242369 -0.101431 0.00238738 0.00242369 -0.000256091 0.00238738 -0.000255558 -0.101431 0.00238738 -0.10009 0.00240912 0.00238738 -0.000255558 0.00240912 -0.000255026 -0.100089 -0.0913861 0.00240256 -0.000690175 -0.0913861 -0.0878974 -0.000690175 -0.0060462 0.00240256 -0.000690175 -0.000204634 -0.000123319 -0.000690175 -0.0060462 -0.000123319 -4.20042e-05 -0.0878974 -0.0893905 -0.0060462 -0.000235421 -0.0893905 -0.0868911 -0.000235421 0.000901034 -0.0060462 -0.000235421 -4.20042e-05 -6.37616e-05 -0.000235421 0.000901034 -6.37616e-05 -8.55191e-05 -8.55191e-05 0.00117525 -0.00156366 0.000975481 0.00117525 -0.0877207 0.000975481 -0.0877849 -0.00156366 0.000975481 -0.0030418 -0.00409741 0.000975481 -0.0877849 -0.00409741 -0.0841282 -0.10009 0.00240912 -0.091387 -0.00069183 0.00240912 -0.000255026 -0.00069183 4.96113e-06 -0.091387 -0.00069183 -0.0878948 -0.00607849 -0.00069183 4.96113e-06 -0.00607849 0.000264948 -0.0878948 -0.00607849 -0.0893907 -0.000230007 -0.00607849 0.000264948 -0.000230007 -0.000528857 -0.0893907 -0.000230007 -0.0868945 0.000959348 -0.000230007 -0.000528857 0.000959348 -0.00132266 -1 -1 -1 -0.673616 -1 -1 -0.673616 -0.479895 -1 -0.673616 -1 -0.479895 -0.673616 -0.479895 -0.479895 -0.18187 -1 -1 -0.480144 -0.673503 -1 -1 -0.673503 -1 -0.480144 -0.673503 -0.181991 -0.480133 -0.673503 -1 -0.480133 -1 -1 -0.480148 -1 -0.673503 -0.480148 -0.181956 -0.673503 -0.480148 -1 -0.673503 -1 -1 -0.673503 -0.480148 -1 -1 -0.0753263 -0.0748983 -0.433093 -0.43538 -0.0748983 -0.0744703 -0.43538 -0.435983 -0.433093 -0.43538 -1 -1 -0.43538 -0.435983 -1 -1 -0.184052 -0.480311 -0.481766 -0.67486 -0.480311 -1 -0.67486 -1 -0.481766 -0.67486 -1 -1 -0.67486 -1 -1 -1 -1 -1 -0.678559 -0.658101 -1 -1 -0.658101 -0.709948 -0.678559 -0.658101 -0.451774 -0.462034 -0.658101 -0.709948 -0.462034 -0.419895 -0.451774 -0.462034 -0.230368 -0.236246 -0.462034 -0.419895 -0.236246 -0.255274 -0.230368 -0.236246 -0.088827 -0.0897399 -0.236246 -0.255274 -0.0897399 -0.0906528 -1 -0.678559 -1 -0.658101 -0.678559 -0.451774 -0.658101 -0.462034 -1 -0.658101 -1 -0.709948 -0.658101 -0.462034 -0.709948 -0.419895 -0.451774 -0.230368 -0.462034 -0.236246 -0.230368 -0.088827 -0.236246 -0.0897399 -0.462034 -0.236246 -0.419895 -0.255274 -0.236246 -0.0897399 -0.255274 -0.0906528 -1 -1 -0.709929 -0.658135 -1 -1 -0.658135 -0.678295 -0.709929 -0.658135 -0.419858 -0.46207 -0.658135 -0.678295 -0.46207 -0.452046 -0.419858 -0.46207 -0.255622 -0.236743 -0.46207 -0.452046 -0.236743 -0.230255 -0.255622 -0.236743 -0.0913861 -0.0896417 -0.236743 -0.230255 -0.0896417 -0.0878974 -1 -1 -0.678295 -0.657071 -1 -1 -0.657071 -0.708109 -0.678295 -0.657071 -0.452046 -0.460454 -0.657071 -0.708109 -0.460454 -0.416218 -0.452046 -0.460454 -0.230255 -0.235364 -0.460454 -0.416218 -0.235364 -0.252804 -0.230255 -0.235364 -0.0878974 -0.0886439 -0.235364 -0.252804 -0.0886439 -0.0893905 -0.0877849 -0.25273 -0.0859565 -0.244365 -0.25273 -0.417675 -0.244365 -0.418246 -0.0859565 -0.244365 -0.0841282 -0.240698 -0.244365 -0.418246 -0.240698 -0.418818 -0.0841282 -0.240698 -0.0884124 -0.237406 -0.240698 -0.418818 -0.237406 -0.46969 -0.0884124 -0.237406 -0.0926965 -0.256448 -0.237406 -0.46969 -0.256448 -0.4202 -0.418818 -0.709409 -0.46969 -0.644937 -0.709409 -1 -0.644937 -1 -0.46969 -0.644937 -0.4202 -0.7101 -0.644937 -1 -0.7101 -1 -1 -0.709929 -1 -0.658135 -0.709929 -0.419858 -0.658135 -0.46207 -1 -0.658135 -1 -0.678295 -0.658135 -0.46207 -0.678295 -0.452046 -0.419858 -0.255623 -0.46207 -0.236743 -0.255623 -0.091387 -0.236743 -0.0896409 -0.46207 -0.236743 -0.452046 -0.230254 -0.236743 -0.0896409 -0.230254 -0.0878948 -1 -0.678295 -1 -0.657071 -0.678295 -0.452046 -0.657071 -0.460454 -1 -0.657071 -1 -0.708109 -0.657071 -0.460454 -0.708109 -0.416218 -0.452046 -0.230254 -0.460454 -0.235364 -0.230254 -0.0878948 -0.235364 -0.0886427 -0.460454 -0.235364 -0.416218 -0.252805 -0.235364 -0.0886427 -0.252805 -0.0893907 -0.0893962 -0.0884336 -0.252797 -0.235229 -0.0884336 -0.0874709 -0.235229 -0.229762 -0.252797 -0.235229 -0.416197 -0.460352 -0.235229 -0.229762 -0.460352 -0.451603 -0.416197 -0.460352 -0.708098 -0.657015 -0.460352 -0.451603 -0.657015 -0.678026 -0.708098 -0.657015 -1 -1 -0.657015 -0.678026 -1 -1 -0.0874709 -0.0888444 -0.229762 -0.235252 -0.0888444 -0.0902179 -0.235252 -0.253194 -0.229762 -0.235252 -0.451603 -0.460411 -0.235252 -0.253194 -0.460411 -0.416171 -0.451603 -0.460411 -0.678026 -0.657046 -0.460411 -0.416171 -0.657046 -0.708085 -0.678026 -0.657046 -1 -1 -0.657046 -0.708085 -1 -1 -1 -1 -0.705443 -0.660052 -1 -1 -0.660052 -0.678559 -0.705443 -0.660052 -0.410886 -0.460465 -0.660052 -0.678559 -0.460465 -0.451774 -0.479895 -0.44539 -0.330883 -0.261811 -0.44539 -0.410886 -0.261811 -0.246017 -0.330883 -0.261811 -0.18187 -0.116529 -0.261811 -0.246017 -0.116529 -0.0951307 -0.410886 -0.460465 -0.246017 -0.230601 -0.460465 -0.451774 -0.230601 -0.230368 -0.246017 -0.230601 -0.0951307 -0.0919789 -0.230601 -0.230368 -0.0919789 -0.088827 -0.479895 -0.330883 -0.44539 -0.261811 -0.330883 -0.18187 -0.261811 -0.116529 -0.44539 -0.261811 -0.410886 -0.246017 -0.261811 -0.116529 -0.246017 -0.0951307 -1 -0.705443 -1 -0.660052 -0.705443 -0.410886 -0.660052 -0.460465 -1 -0.660052 -1 -0.678559 -0.660052 -0.460465 -0.678559 -0.451774 -0.410886 -0.246017 -0.460465 -0.230601 -0.246017 -0.0951307 -0.230601 -0.0919789 -0.460465 -0.230601 -0.451774 -0.230368 -0.230601 -0.0919789 -0.230368 -0.088827 -0.18187 -0.116529 -0.116529 -0.0578841 -0.116529 -0.0951307 -0.0578841 -0.0521434 -0.116529 -0.0578841 -0.0951307 -0.0521434 -0.0578841 -0.0521434 -0.0521434 -0.00915616 -1 -1 -0.70872 -0.643348 -1 -1 -0.643348 -0.706066 -0.70872 -0.643348 -0.417439 -0.46798 -0.643348 -0.706066 -0.46798 -0.412131 -0.417439 -0.46798 -0.252165 -0.235717 -0.46798 -0.412131 -0.235717 -0.245992 -0.252165 -0.235717 -0.0868911 -0.0886662 -0.235717 -0.245992 -0.0886662 -0.0904413 -0.412131 -0.446137 -0.245992 -0.261971 -0.446137 -0.480144 -0.261971 -0.331067 -0.245992 -0.261971 -0.0904413 -0.116816 -0.261971 -0.331067 -0.116816 -0.181991 -0.0904413 -0.116816 -0.0483414 -0.0572844 -0.116816 -0.181991 -0.0572844 -0.116935 -0.0483414 -0.0572844 -0.00624157 -0.0484835 -0.0572844 -0.116935 -0.0484835 -0.0907255 -0.181991 -0.331062 -0.116935 -0.262101 -0.331062 -0.480133 -0.262101 -0.446345 -0.116935 -0.262101 -0.0907255 -0.246472 -0.262101 -0.446345 -0.246472 -0.412558 -0.0907255 -0.246472 -0.0892231 -0.236951 -0.246472 -0.412558 -0.236951 -0.469579 -0.0892231 -0.236951 -0.0877207 -0.252973 -0.236951 -0.469579 -0.252973 -0.418225 -0.412558 -0.706279 -0.469579 -0.64437 -0.706279 -1 -0.64437 -1 -0.469579 -0.64437 -0.418225 -0.709112 -0.64437 -1 -0.709112 -1 -1 -0.708719 -1 -0.643348 -0.708719 -0.417438 -0.643348 -0.467979 -1 -0.643348 -1 -0.706065 -0.643348 -0.467979 -0.706065 -0.41213 -0.417438 -0.252166 -0.467979 -0.235713 -0.252166 -0.0868945 -0.235713 -0.0886547 -0.467979 -0.235713 -0.41213 -0.245985 -0.235713 -0.0886547 -0.245985 -0.0904149 -0.41213 -0.245985 -0.446139 -0.261964 -0.245985 -0.0904149 -0.261964 -0.116787 -0.446139 -0.261964 -0.480148 -0.331052 -0.261964 -0.116787 -0.331052 -0.181956 -0.0904149 -0.0483133 -0.116787 -0.0571865 -0.0483133 -0.00621168 -0.0571865 -0.0483128 -0.116787 -0.0571865 -0.181956 -0.116787 -0.0571865 -0.0483128 -0.116787 -0.090414 -0.181956 -0.116787 -0.331052 -0.261964 -0.116787 -0.090414 -0.261964 -0.245986 -0.331052 -0.261964 -0.480148 -0.446139 -0.261964 -0.245986 -0.446139 -0.41213 -0.090414 -0.0886562 -0.245986 -0.235713 -0.0886562 -0.0868985 -0.235713 -0.25217 -0.245986 -0.235713 -0.41213 -0.46798 -0.235713 -0.25217 -0.46798 -0.417441 -0.41213 -0.46798 -0.706065 -0.643349 -0.46798 -0.417441 -0.643349 -0.708721 -0.706065 -0.643349 -1 -1 -0.643349 -0.708721 -1 -1 -0.0667309 -0.244933 -0.077888 -0.240353 -0.244933 -0.423136 -0.240353 -0.468801 -0.077888 -0.240353 -0.089045 -0.253282 -0.240353 -0.468801 -0.253282 -0.417519 -0.423136 -0.711568 -0.468801 -0.641237 -0.711568 -1 -0.641237 -1 -0.468801 -0.641237 -0.417519 -0.70876 -0.641237 -1 -0.70876 -1 -0.0858946 -0.0884834 -0.252147 -0.242847 -0.0884834 -0.0910723 -0.242847 -0.255841 -0.252147 -0.242847 -0.4184 -0.469694 -0.242847 -0.255841 -0.469694 -0.42061 -0.4184 -0.469694 -0.7092 -0.641178 -0.469694 -0.42061 -0.641178 -0.710305 -0.7092 -0.641178 -1 -1 -0.641178 -0.710305 -1 -1 0.00347725 -0.0438254 -0.0490492 -0.0538151 -0.0438254 -0.091128 -0.0538151 -0.116118 -0.0490492 -0.0538151 -0.101576 -0.118 -0.0538151 -0.116118 -0.118 -0.184052 -0.0868122 -0.252297 -0.0889701 -0.2356 -0.252297 -0.417782 -0.2356 -0.467969 -0.0889701 -0.2356 -0.091128 -0.245786 -0.2356 -0.467969 -0.245786 -0.412154 -0.417782 -0.708891 -0.467969 -0.643381 -0.708891 -1 -0.643381 -1 -0.467969 -0.643381 -0.412154 -0.706077 -0.643381 -1 -0.706077 -1 -0.091128 -0.245786 -0.116118 -0.262102 -0.245786 -0.412154 -0.262102 -0.446233 -0.116118 -0.262102 -0.184052 -0.332181 -0.262102 -0.446233 -0.332181 -0.480311 -0.101576 -0.118 -0.259333 -0.270444 -0.118 -0.184052 -0.270444 -0.332909 -0.259333 -0.270444 -0.417091 -0.449428 -0.270444 -0.332909 -0.449428 -0.481766 
