# vtk DataFile Version 3.0
#This file was generated by the deal.II library on 2015/4/9 at 19:23:45
ASCII
DATASET UNSTRUCTURED_GRID

POINTS 1396 double
-0.5 -0.5 0
-0.25 -0.5 0
-0.5 -0.25 0
-0.25 -0.25 0
-0.25 -0.5 0
0 -0.5 0
-0.25 -0.25 0
0 -0.25 0
-0.5 -0.25 0
-0.25 -0.25 0
-0.5 0 0
-0.25 0 0
-0.25 -0.25 0
0 -0.25 0
-0.25 0 0
0 0 0
0 -0.5 0
0.25 -0.5 0
0 -0.25 0
0.25 -0.25 0
0.25 -0.5 0
0.5 -0.5 0
0.25 -0.25 0
0.5 -0.25 0
0 -0.25 0
0.25 -0.25 0
0 0 0
0.25 0 0
0.25 -0.25 0
0.5 -0.25 0
0.25 0 0
0.5 0 0
-0.5 0 0
-0.25 0 0
-0.5 0.25 0
-0.25 0.25 0
-0.25 0 0
0 0 0
-0.25 0.25 0
0 0.25 0
-0.5 0.25 0
-0.25 0.25 0
-0.5 0.5 0
-0.25 0.5 0
-0.25 0.25 0
0 0.25 0
-0.25 0.5 0
0 0.5 0
0 0 0
0.25 0 0
0 0.25 0
0.25 0.25 0
0.25 0 0
0.5 0 0
0.25 0.25 0
0.5 0.25 0
0 0.25 0
0.25 0.25 0
0 0.5 0
0.25 0.5 0
0.25 0.25 0
0.5 0.25 0
0.25 0.5 0
0.5 0.5 0
0.5 0 0
0.75 0 0
0.5 0.25 0
0.75 0.25 0
0.25 0.5 0
0.5 0.5 0
0.25 0.75 0
0.5 0.75 0
-0.375 -1 0
-0.25 -1 0
-0.375 -0.875 0
-0.25 -0.875 0
-0.375 -0.875 0
-0.25 -0.875 0
-0.375 -0.75 0
-0.25 -0.75 0
-1 -0.375 0
-0.875 -0.375 0
-1 -0.25 0
-0.875 -0.25 0
-0.875 -0.375 0
-0.75 -0.375 0
-0.875 -0.25 0
-0.75 -0.25 0
0 -1 0
0.125 -1 0
0 -0.875 0
0.125 -0.875 0
0 -0.875 0
0.125 -0.875 0
0 -0.75 0
0.125 -0.75 0
0.375 -1 0
0.5 -1 0
0.375 -0.875 0
0.5 -0.875 0
0.375 -0.875 0
0.5 -0.875 0
0.375 -0.75 0
0.5 -0.75 0
0.75 -0.5 0
0.875 -0.5 0
0.75 -0.375 0
0.875 -0.375 0
0.875 -0.5 0
1 -0.5 0
0.875 -0.375 0
1 -0.375 0
0.875 -0.375 0
1 -0.375 0
0.875 -0.25 0
1 -0.25 0
0.5 -0.25 0
0.625 -0.25 0
0.5 -0.125 0
0.625 -0.125 0
0.625 -0.25 0
0.75 -0.25 0
0.625 -0.125 0
0.75 -0.125 0
0.5 -0.125 0
0.625 -0.125 0
0.5 0 0
0.625 0 0
0.625 -0.125 0
0.75 -0.125 0
0.625 0 0
0.75 0 0
0.75 -0.125 0
0.875 -0.125 0
0.75 0 0
0.875 0 0
0.875 -0.125 0
1 -0.125 0
0.875 0 0
1 0 0
-1 0 0
-0.875 0 0
-1 0.125 0
-0.875 0.125 0
-0.875 0 0
-0.75 0 0
-0.875 0.125 0
-0.75 0.125 0
-1 0.375 0
-0.875 0.375 0
-1 0.5 0
-0.875 0.5 0
-0.875 0.375 0
-0.75 0.375 0
-0.875 0.5 0
-0.75 0.5 0
-0.5 0.5 0
-0.375 0.5 0
-0.5 0.625 0
-0.375 0.625 0
-0.375 0.5 0
-0.25 0.5 0
-0.375 0.625 0
-0.25 0.625 0
-0.5 0.625 0
-0.375 0.625 0
-0.5 0.75 0
-0.375 0.75 0
-0.375 0.625 0
-0.25 0.625 0
-0.375 0.75 0
-0.25 0.75 0
-0.25 0.5 0
-0.125 0.5 0
-0.25 0.625 0
-0.125 0.625 0
-0.125 0.5 0
0 0.5 0
-0.125 0.625 0
0 0.625 0
-0.25 0.625 0
-0.125 0.625 0
-0.25 0.75 0
-0.125 0.75 0
-0.125 0.625 0
0 0.625 0
-0.125 0.75 0
0 0.75 0
-0.5 0.75 0
-0.375 0.75 0
-0.5 0.875 0
-0.375 0.875 0
-0.5 0.875 0
-0.375 0.875 0
-0.5 1 0
-0.375 1 0
-0.125 0.75 0
0 0.75 0
-0.125 0.875 0
0 0.875 0
-0.125 0.875 0
0 0.875 0
-0.125 1 0
0 1 0
-0.75 -1 0
-0.625 -1 0
-0.75 -0.875 0
-0.625 -0.875 0
-1 -0.75 0
-0.875 -0.75 0
-1 -0.625 0
-0.875 -0.625 0
-0.625 -0.75 0
-0.5 -0.75 0
-0.625 -0.625 0
-0.5 -0.625 0
-0.75 -0.625 0
-0.625 -0.625 0
-0.75 -0.5 0
-0.625 -0.5 0
-0.625 -0.625 0
-0.5 -0.625 0
-0.625 -0.5 0
-0.5 -0.5 0
0.625 -1 0
0.75 -1 0
0.625 -0.875 0
0.75 -0.875 0
0.5 -0.75 0
0.625 -0.75 0
0.5 -0.625 0
0.625 -0.625 0
0.5 -0.625 0
0.625 -0.625 0
0.5 -0.5 0
0.625 -0.5 0
0.625 -0.625 0
0.75 -0.625 0
0.625 -0.5 0
0.75 -0.5 0
0.875 -0.75 0
1 -0.75 0
0.875 -0.625 0
1 -0.625 0
-1 0.625 0
-0.875 0.625 0
-1 0.75 0
-0.875 0.75 0
-0.75 0.5 0
-0.625 0.5 0
-0.75 0.625 0
-0.625 0.625 0
-0.625 0.5 0
-0.5 0.5 0
-0.625 0.625 0
-0.5 0.625 0
-0.625 0.625 0
-0.5 0.625 0
-0.625 0.75 0
-0.5 0.75 0
-0.75 0.875 0
-0.625 0.875 0
-0.75 1 0
-0.625 1 0
-0.25 -1 0
-0.125 -1 0
-0.25 -0.875 0
-0.125 -0.875 0
-0.125 -1 0
0 -1 0
-0.125 -0.875 0
0 -0.875 0
-0.25 -0.875 0
-0.125 -0.875 0
-0.25 -0.75 0
-0.125 -0.75 0
-0.125 -0.875 0
0 -0.875 0
-0.125 -0.75 0
0 -0.75 0
0.75 0 0
0.875 0 0
0.75 0.125 0
0.875 0.125 0
0.875 0 0
1 0 0
0.875 0.125 0
1 0.125 0
0.75 0.125 0
0.875 0.125 0
0.75 0.25 0
0.875 0.25 0
0.875 0.125 0
1 0.125 0
0.875 0.25 0
1 0.25 0
0.5 0.25 0
0.625 0.25 0
0.5 0.375 0
0.625 0.375 0
0.625 0.25 0
0.75 0.25 0
0.625 0.375 0
0.75 0.375 0
0.5 0.375 0
0.625 0.375 0
0.5 0.5 0
0.625 0.5 0
0.625 0.375 0
0.75 0.375 0
0.625 0.5 0
0.75 0.5 0
0.75 0.375 0
0.875 0.375 0
0.75 0.5 0
0.875 0.5 0
0.875 0.375 0
1 0.375 0
0.875 0.5 0
1 0.5 0
0 0.5 0
0.125 0.5 0
0 0.625 0
0.125 0.625 0
0.125 0.5 0
0.25 0.5 0
0.125 0.625 0
0.25 0.625 0
0 0.625 0
0.125 0.625 0
0 0.75 0
0.125 0.75 0
0.125 0.625 0
0.25 0.625 0
0.125 0.75 0
0.25 0.75 0
-0.5 -0.75 0
-0.375 -0.75 0
-0.5 -0.625 0
-0.375 -0.625 0
-0.375 -0.75 0
-0.25 -0.75 0
-0.375 -0.625 0
-0.25 -0.625 0
-0.5 -0.625 0
-0.375 -0.625 0
-0.5 -0.5 0
-0.375 -0.5 0
-0.375 -0.625 0
-0.25 -0.625 0
-0.375 -0.5 0
-0.25 -0.5 0
0.125 0.75 0
0.25 0.75 0
0.125 0.875 0
0.25 0.875 0
0.125 0.875 0
0.25 0.875 0
0.125 1 0
0.25 1 0
0.5 0.5 0
0.625 0.5 0
0.5 0.625 0
0.625 0.625 0
0.625 0.5 0
0.75 0.5 0
0.625 0.625 0
0.75 0.625 0
0.5 0.625 0
0.625 0.625 0
0.5 0.75 0
0.625 0.75 0
0.875 0.625 0
1 0.625 0
0.875 0.75 0
1 0.75 0
0.5 0.75 0
0.625 0.75 0
0.5 0.875 0
0.625 0.875 0
0.5 0.875 0
0.625 0.875 0
0.5 1 0
0.625 1 0
0.625 0.875 0
0.75 0.875 0
0.625 1 0
0.75 1 0
-0.25 -0.75 0
-0.125 -0.75 0
-0.25 -0.625 0
-0.125 -0.625 0
-0.125 -0.75 0
0 -0.75 0
-0.125 -0.625 0
0 -0.625 0
-0.25 -0.625 0
-0.125 -0.625 0
-0.25 -0.5 0
-0.125 -0.5 0
-0.125 -0.625 0
0 -0.625 0
-0.125 -0.5 0
0 -0.5 0
-0.75 -0.5 0
-0.625 -0.5 0
-0.75 -0.375 0
-0.625 -0.375 0
-0.625 -0.5 0
-0.5 -0.5 0
-0.625 -0.375 0
-0.5 -0.375 0
-0.75 -0.375 0
-0.625 -0.375 0
-0.75 -0.25 0
-0.625 -0.25 0
-0.625 -0.375 0
-0.5 -0.375 0
-0.625 -0.25 0
-0.5 -0.25 0
-1 -0.25 0
-0.875 -0.25 0
-1 -0.125 0
-0.875 -0.125 0
-0.875 -0.25 0
-0.75 -0.25 0
-0.875 -0.125 0
-0.75 -0.125 0
-1 -0.125 0
-0.875 -0.125 0
-1 0 0
-0.875 0 0
-0.875 -0.125 0
-0.75 -0.125 0
-0.875 0 0
-0.75 0 0
-0.75 -0.25 0
-0.625 -0.25 0
-0.75 -0.125 0
-0.625 -0.125 0
-0.625 -0.25 0
-0.5 -0.25 0
-0.625 -0.125 0
-0.5 -0.125 0
-0.75 -0.125 0
-0.625 -0.125 0
-0.75 0 0
-0.625 0 0
-0.625 -0.125 0
-0.5 -0.125 0
-0.625 0 0
-0.5 0 0
0 -0.75 0
0.125 -0.75 0
0 -0.625 0
0.125 -0.625 0
0.125 -0.75 0
0.25 -0.75 0
0.125 -0.625 0
0.25 -0.625 0
0 -0.625 0
0.125 -0.625 0
0 -0.5 0
0.125 -0.5 0
0.125 -0.625 0
0.25 -0.625 0
0.125 -0.5 0
0.25 -0.5 0
0.25 -0.75 0
0.375 -0.75 0
0.25 -0.625 0
0.375 -0.625 0
0.375 -0.75 0
0.5 -0.75 0
0.375 -0.625 0
0.5 -0.625 0
0.25 -0.625 0
0.375 -0.625 0
0.25 -0.5 0
0.375 -0.5 0
0.375 -0.625 0
0.5 -0.625 0
0.375 -0.5 0
0.5 -0.5 0
0.5 -0.5 0
0.625 -0.5 0
0.5 -0.375 0
0.625 -0.375 0
0.625 -0.5 0
0.75 -0.5 0
0.625 -0.375 0
0.75 -0.375 0
0.5 -0.375 0
0.625 -0.375 0
0.5 -0.25 0
0.625 -0.25 0
0.625 -0.375 0
0.75 -0.375 0
0.625 -0.25 0
0.75 -0.25 0
-0.75 0 0
-0.625 0 0
-0.75 0.125 0
-0.625 0.125 0
-0.625 0 0
-0.5 0 0
-0.625 0.125 0
-0.5 0.125 0
-0.75 0.125 0
-0.625 0.125 0
-0.75 0.25 0
-0.625 0.25 0
-0.625 0.125 0
-0.5 0.125 0
-0.625 0.25 0
-0.5 0.25 0
-0.75 0.25 0
-0.625 0.25 0
-0.75 0.375 0
-0.625 0.375 0
-0.625 0.25 0
-0.5 0.25 0
-0.625 0.375 0
-0.5 0.375 0
-0.75 0.375 0
-0.625 0.375 0
-0.75 0.5 0
-0.625 0.5 0
-0.625 0.375 0
-0.5 0.375 0
-0.625 0.5 0
-0.5 0.5 0
-1 -1 0
-0.875 -1 0
-1 -0.875 0
-0.875 -0.875 0
-0.875 -1 0
-0.75 -1 0
-0.875 -0.875 0
-0.75 -0.875 0
-1 -0.875 0
-0.875 -0.875 0
-1 -0.75 0
-0.875 -0.75 0
-0.875 -0.875 0
-0.75 -0.875 0
-0.875 -0.75 0
-0.75 -0.75 0
0.75 -1 0
0.875 -1 0
0.75 -0.875 0
0.875 -0.875 0
0.875 -1 0
1 -1 0
0.875 -0.875 0
1 -0.875 0
0.75 -0.875 0
0.875 -0.875 0
0.75 -0.75 0
0.875 -0.75 0
0.875 -0.875 0
1 -0.875 0
0.875 -0.75 0
1 -0.75 0
-1 0.75 0
-0.875 0.75 0
-1 0.875 0
-0.875 0.875 0
-0.875 0.75 0
-0.75 0.75 0
-0.875 0.875 0
-0.75 0.875 0
-1 0.875 0
-0.875 0.875 0
-1 1 0
-0.875 1 0
-0.875 0.875 0
-0.75 0.875 0
-0.875 1 0
-0.75 1 0
0.25 0.75 0
0.375 0.75 0
0.25 0.875 0
0.375 0.875 0
0.375 0.75 0
0.5 0.75 0
0.375 0.875 0
0.5 0.875 0
0.25 0.875 0
0.375 0.875 0
0.25 1 0
0.375 1 0
0.375 0.875 0
0.5 0.875 0
0.375 1 0
0.5 1 0
0.75 0.75 0
0.875 0.75 0
0.75 0.875 0
0.875 0.875 0
0.875 0.75 0
1 0.75 0
0.875 0.875 0
1 0.875 0
0.75 0.875 0
0.875 0.875 0
0.75 1 0
0.875 1 0
0.875 0.875 0
1 0.875 0
0.875 1 0
1 1 0
-0.5 -1 0
-0.4375 -1 0
-0.5 -0.9375 0
-0.4375 -0.9375 0
-0.4375 -1 0
-0.375 -1 0
-0.4375 -0.9375 0
-0.375 -0.9375 0
-0.5 -0.9375 0
-0.4375 -0.9375 0
-0.5 -0.875 0
-0.4375 -0.875 0
-0.4375 -0.9375 0
-0.375 -0.9375 0
-0.4375 -0.875 0
-0.375 -0.875 0
-0.5 -0.875 0
-0.4375 -0.875 0
-0.5 -0.8125 0
-0.4375 -0.8125 0
-0.4375 -0.875 0
-0.375 -0.875 0
-0.4375 -0.8125 0
-0.375 -0.8125 0
-0.5 -0.8125 0
-0.4375 -0.8125 0
-0.5 -0.75 0
-0.4375 -0.75 0
-0.4375 -0.8125 0
-0.375 -0.8125 0
-0.4375 -0.75 0
-0.375 -0.75 0
-1 -0.5 0
-0.9375 -0.5 0
-1 -0.4375 0
-0.9375 -0.4375 0
-0.9375 -0.5 0
-0.875 -0.5 0
-0.9375 -0.4375 0
-0.875 -0.4375 0
-1 -0.4375 0
-0.9375 -0.4375 0
-1 -0.375 0
-0.9375 -0.375 0
-0.9375 -0.4375 0
-0.875 -0.4375 0
-0.9375 -0.375 0
-0.875 -0.375 0
-0.875 -0.5 0
-0.8125 -0.5 0
-0.875 -0.4375 0
-0.8125 -0.4375 0
-0.8125 -0.5 0
-0.75 -0.5 0
-0.8125 -0.4375 0
-0.75 -0.4375 0
-0.875 -0.4375 0
-0.8125 -0.4375 0
-0.875 -0.375 0
-0.8125 -0.375 0
-0.8125 -0.4375 0
-0.75 -0.4375 0
-0.8125 -0.375 0
-0.75 -0.375 0
0.125 -1 0
0.1875 -1 0
0.125 -0.9375 0
0.1875 -0.9375 0
0.1875 -1 0
0.25 -1 0
0.1875 -0.9375 0
0.25 -0.9375 0
0.125 -0.9375 0
0.1875 -0.9375 0
0.125 -0.875 0
0.1875 -0.875 0
0.1875 -0.9375 0
0.25 -0.9375 0
0.1875 -0.875 0
0.25 -0.875 0
0.125 -0.875 0
0.1875 -0.875 0
0.125 -0.8125 0
0.1875 -0.8125 0
0.1875 -0.875 0
0.25 -0.875 0
0.1875 -0.8125 0
0.25 -0.8125 0
0.125 -0.8125 0
0.1875 -0.8125 0
0.125 -0.75 0
0.1875 -0.75 0
0.1875 -0.8125 0
0.25 -0.8125 0
0.1875 -0.75 0
0.25 -0.75 0
0.25 -1 0
0.3125 -1 0
0.25 -0.9375 0
0.3125 -0.9375 0
0.3125 -1 0
0.375 -1 0
0.3125 -0.9375 0
0.375 -0.9375 0
0.25 -0.9375 0
0.3125 -0.9375 0
0.25 -0.875 0
0.3125 -0.875 0
0.3125 -0.9375 0
0.375 -0.9375 0
0.3125 -0.875 0
0.375 -0.875 0
0.25 -0.875 0
0.3125 -0.875 0
0.25 -0.8125 0
0.3125 -0.8125 0
0.3125 -0.875 0
0.375 -0.875 0
0.3125 -0.8125 0
0.375 -0.8125 0
0.25 -0.8125 0
0.3125 -0.8125 0
0.25 -0.75 0
0.3125 -0.75 0
0.3125 -0.8125 0
0.375 -0.8125 0
0.3125 -0.75 0
0.375 -0.75 0
0.75 -0.375 0
0.8125 -0.375 0
0.75 -0.3125 0
0.8125 -0.3125 0
0.8125 -0.375 0
0.875 -0.375 0
0.8125 -0.3125 0
0.875 -0.3125 0
[...]
POINT_DATA 1396
SCALARS U double 1
LOOKUP_TABLE default
-0.00213018 0.000795691 0.000801129 -0.000286861 0.000795691 0.000570368 -0.000286861 -0.000171123 0.000801129 -0.000286861 0.000515203 -2.4323e-05 -0.000286861 -0.000171123 -2.4323e-05 -9.1245e-05 0.000570368 -0.00111196 -0.000171123 0.000720714 -0.00111196 0.000597806 0.000720714 -0.00291596 -0.000171123 0.000720714 -9.1245e-05 -0.00122518 0.000720714 -0.00291596 -0.00122518 0.0153059 0.000515203 -2.4323e-05 -0.00101528 0.000309346 -2.4323e-05 -9.1245e-05 0.000309346 0.000132842 -0.00101528 0.000309346 0.000338209 -0.000725399 0.000309346 0.000132842 -0.000725399 -0.00234586 -9.1245e-05 -0.00122518 0.000132842 -0.0019894 -0.00122518 0.0153059 -0.0019894 0.0136534 0.000132842 -0.0019894 -0.00234586 0.0156033 -0.0019894 0.0136534 0.0156033 0.0150767 0.0153059 -0.147069 0.0136534 -0.142687 0.0156033 0.0150767 -0.147336 -0.149579 -1 -1 -0.49707 -0.506123 -0.49707 -0.506123 -0.165903 -0.171823 -1 -0.49707 -1 -0.506123 -0.49707 -0.165903 -0.506123 -0.171824 -1 -1 -0.506116 -0.497272 -0.506116 -0.497272 -0.172021 -0.165394 -1 -1 -0.493563 -0.493812 -0.493563 -0.493812 -0.16158 -0.162043 -0.162179 -0.494368 -0.160109 -0.494678 -0.494368 -1 -0.494678 -1 -0.494678 -1 -0.504185 -1 -0.00291596 -0.0258287 0.00619495 -0.0293359 -0.0258287 -0.174754 -0.0293359 -0.165302 0.00619495 -0.0293359 0.0153059 -0.0658818 -0.0293359 -0.165302 -0.0658818 -0.147069 -0.165302 -0.49458 -0.147069 -0.500221 -0.49458 -1 -0.500221 -1 -1 -0.506116 -1 -0.497272 -0.506116 -0.172019 -0.497272 -0.165398 -1 -0.493563 -1 -0.493812 -0.493563 -0.161575 -0.493812 -0.162014 0.000338209 -0.000193595 -0.0300346 -0.0294963 -0.000193595 -0.000725399 -0.0294963 -0.027374 -0.0300346 -0.0294963 -0.162014 -0.161453 -0.0294963 -0.027374 -0.161453 -0.174092 -0.000725399 -0.00153563 -0.027374 -0.0302361 -0.00153563 -0.00234586 -0.0302361 -0.0271971 -0.027374 -0.0302361 -0.174092 -0.160977 -0.0302361 -0.0271971 -0.160977 -0.164971 -0.162014 -0.161453 -0.493812 -0.493461 -0.493812 -0.493461 -1 -1 -0.160977 -0.164971 -0.493863 -0.493481 -0.493863 -0.493481 -1 -1 -1 -1 -0.579045 -0.519746 -1 -0.579045 -1 -0.519746 -0.193543 -0.172292 -0.0537154 -0.0309689 -0.193543 -0.0537154 -0.172292 -0.0309686 -0.0537154 -0.0309689 -0.0309686 -0.00213018 -1 -1 -0.519092 -0.579283 -0.162043 -0.196416 -0.0297941 -0.0480884 -0.0297941 -0.0480884 0.000597806 -0.0297591 -0.0480884 -0.196761 -0.0297591 -0.162179 -0.579362 -1 -0.519581 -1 -1 -0.519084 -1 -0.57928 -0.162014 -0.0300652 -0.196377 -0.0480824 -0.0300652 0.000338209 -0.0480824 -0.0300346 -0.0480824 -0.0300346 -0.196377 -0.162014 -0.57928 -0.519084 -1 -1 -1 -1 -0.506123 -0.508362 -1 -1 -0.508362 -0.506116 -0.506123 -0.508362 -0.171823 -0.174276 -0.508362 -0.506116 -0.174276 -0.172021 -0.147069 -0.500221 -0.144878 -0.497495 -0.500221 -1 -0.497495 -1 -0.144878 -0.497495 -0.142687 -0.491792 -0.497495 -1 -0.491792 -1 0.0136534 -0.0645166 0.0143651 -0.0247177 -0.0645166 -0.142687 -0.0247177 -0.165754 0.0143651 -0.0247177 0.0150767 -0.0285854 -0.0247177 -0.165754 -0.0285854 -0.161257 -0.165754 -0.491885 -0.161257 -0.494282 -0.491885 -1 -0.494282 -1 -0.00234586 0.00662874 -0.0271971 -0.0277336 0.00662874 0.0156033 -0.0277336 -0.0658663 -0.0271971 -0.0277336 -0.164971 -0.16789 -0.0277336 -0.0658663 -0.16789 -0.147336 -0.172292 -0.165903 -0.0309689 -0.0305486 -0.165903 -0.171823 -0.0305486 -0.0310252 -0.0309689 -0.0305486 -0.00213018 -0.000667245 -0.0305486 -0.0310252 -0.000667245 0.000795691 -0.16789 -0.147336 -0.494401 -0.500947 -0.494401 -0.500947 -1 -1 0.0150767 -0.0285854 -0.067251 -0.0513026 -0.0285854 -0.161257 -0.0513026 -0.194455 -0.067251 -0.0513026 -0.149579 -0.187992 -0.519112 -1 -0.579993 -1 -0.149579 -0.187992 -0.500252 -0.51471 -0.500252 -0.51471 -1 -1 -0.51471 -0.58351 -1 -1 -0.171823 -0.174276 -0.0310252 -0.0313475 -0.174276 -0.172021 -0.0313475 -0.0310098 -0.0310252 -0.0313475 0.000795691 0.00068303 -0.0313475 -0.0310098 0.00068303 0.000570368 -0.172292 -0.0309686 -0.165903 -0.0305471 -0.0309686 -0.00213018 -0.0305471 -0.000664527 -0.165903 -0.0305471 -0.171824 -0.0310256 -0.0305471 -0.000664527 -0.0310256 0.000801129 -1 -0.506123 -1 -0.508362 -0.506123 -0.171824 -0.508362 -0.174275 -1 -0.508362 -1 -0.506116 -0.508362 -0.174275 -0.506116 -0.172019 -0.171824 -0.0310256 -0.174275 -0.0313541 -0.0310256 0.000801129 -0.0313541 0.000658166 -0.174275 -0.0313541 -0.172019 -0.0310086 -0.0313541 0.000658166 -0.0310086 0.000515203 -0.172021 -0.165394 -0.0310098 -0.0307982 -0.165394 -0.174375 -0.0307982 -0.0277188 -0.0310098 -0.0307982 0.000570368 -0.000270795 -0.0307982 -0.0277188 -0.000270795 -0.00111196 -0.174375 -0.16158 -0.0277188 -0.0294854 -0.16158 -0.162043 -0.0294854 -0.0297941 -0.0277188 -0.0294854 -0.00111196 -0.000257077 -0.0294854 -0.0297941 -0.000257077 0.000597806 0.000597806 -0.0297591 -0.00115908 -0.0292602 -0.0297591 -0.162179 -0.0292602 -0.160109 -0.00115908 -0.0292602 -0.00291596 -0.0258287 -0.0292602 -0.160109 -0.0258287 -0.174754 -0.172019 -0.0310086 -0.165398 -0.0307571 -0.0310086 0.000515203 -0.0307571 -0.000250037 -0.165398 -0.0307571 -0.174387 -0.0276918 -0.0307571 -0.000250037 -0.0276918 -0.00101528 -0.174387 -0.0276918 -0.161575 -0.029638 -0.0276918 -0.00101528 -0.029638 -0.000338534 -0.161575 -0.029638 -0.162014 -0.0300652 -0.029638 -0.000338534 -0.0300652 0.000338209 -1 -1 -1 -0.756089 -1 -1 -0.756089 -0.579045 -1 -0.756089 -1 -0.579045 -0.756089 -0.579045 -0.579045 -0.299621 -1 -1 -0.579283 -0.756147 -1 -1 -0.756147 -1 -0.579283 -0.756147 -0.299419 -0.579362 -0.756147 -1 -0.579362 -1 -1 -0.57928 -1 -0.756151 -0.57928 -0.299325 -0.756151 -0.57928 -1 -0.756151 -1 -1 -0.756151 -0.57928 -1 -1 -0.147336 -0.148457 -0.500947 -0.500837 -0.148457 -0.149579 -0.500837 -0.500252 -0.500947 -0.500837 -1 -1 -0.500837 -0.500252 -1 -1 -0.300281 -0.579993 -0.58351 -0.75641 -0.579993 -1 -0.75641 -1 -0.58351 -0.75641 -1 -1 -0.75641 -1 -1 -1 -1 -1 -0.7477 -0.765566 -1 -1 -0.765566 -0.748535 -0.7477 -0.765566 -0.494657 -0.488663 -0.765566 -0.748535 -0.488663 -0.49707 -0.494657 -0.488663 -0.31682 -0.312451 -0.488663 -0.49707 -0.312451 -0.331486 -0.31682 -0.312451 -0.172292 -0.169098 -0.312451 -0.331486 -0.169098 -0.165903 -1 -0.7477 -1 -0.765566 -0.7477 -0.494657 -0.765566 -0.488663 -1 -0.765566 -1 -0.748535 -0.765566 -0.488663 -0.748535 -0.49707 -0.494657 -0.31682 -0.488663 -0.312451 -0.31682 -0.172292 -0.312451 -0.169098 -0.488663 -0.312451 -0.49707 -0.331486 -0.312451 -0.169098 -0.331486 -0.165903 -1 -1 -0.748636 -0.765468 -1 -1 -0.765468 -0.747347 -0.748636 -0.765468 -0.497272 -0.488569 -0.765468 -0.747347 -0.488569 -0.493866 -0.497272 -0.488569 -0.331333 -0.312242 -0.488569 -0.493866 -0.312242 -0.3156 -0.331333 -0.312242 -0.165394 -0.169885 -0.312242 -0.3156 -0.169885 -0.174375 -1 -1 -0.747347 -0.764698 -1 -1 -0.764698 -0.746781 -0.747347 -0.764698 -0.493866 -0.487306 -0.764698 -0.746781 -0.487306 -0.493563 -0.493866 -0.487306 -0.3156 -0.310622 -0.487306 -0.493563 -0.310622 -0.327572 -0.3156 -0.310622 -0.174375 -0.167978 -0.310622 -0.327572 -0.167978 -0.16158 -0.160109 -0.327393 -0.167432 -0.296719 -0.327393 -0.494678 -0.296719 -0.499431 -0.167432 -0.296719 -0.174754 -0.301202 -0.296719 -0.499431 -0.301202 -0.504185 -0.174754 -0.301202 -0.170028 -0.310168 -0.301202 -0.504185 -0.310168 -0.481707 -0.170028 -0.310168 -0.165302 -0.329941 -0.310168 -0.481707 -0.329941 -0.49458 -0.504185 -0.752092 -0.481707 -0.775888 -0.752092 -1 -0.775888 -1 -0.481707 -0.775888 -0.49458 -0.74729 -0.775888 -1 -0.74729 -1 -1 -0.748636 -1 -0.765468 -0.748636 -0.497272 -0.765468 -0.48857 -1 -0.765468 -1 -0.747347 -0.765468 -0.48857 -0.747347 -0.493866 -0.497272 -0.331335 -0.48857 -0.312244 -0.331335 -0.165398 -0.312244 -0.169893 -0.48857 -0.312244 -0.493866 -0.315601 -0.312244 -0.169893 -0.315601 -0.174387 -1 -0.747347 -1 -0.764698 -0.747347 -0.493866 -0.764698 -0.487306 -1 -0.764698 -1 -0.746781 -0.764698 -0.487306 -0.746781 -0.493563 -0.493866 -0.315601 -0.487306 -0.310622 -0.315601 -0.174387 -0.310622 -0.167981 -0.487306 -0.310622 -0.493563 -0.327569 -0.310622 -0.167981 -0.327569 -0.161575 -0.161453 -0.167772 -0.327457 -0.310284 -0.167772 -0.174092 -0.310284 -0.314664 -0.327457 -0.310284 -0.493461 -0.486966 -0.310284 -0.314664 -0.486966 -0.492994 -0.493461 -0.486966 -0.74673 -0.764494 -0.486966 -0.492994 -0.764494 -0.74681 -0.74673 -0.764494 -1 -1 -0.764494 -0.74681 -1 -1 -0.174092 -0.167534 -0.314664 -0.310474 -0.167534 -0.160977 -0.310474 -0.32742 -0.314664 -0.310474 -0.492994 -0.487022 -0.310474 -0.32742 -0.487022 -0.493863 -0.492994 -0.487022 -0.74681 -0.764526 -0.487022 -0.493863 -0.764526 -0.746931 -0.74681 -0.764526 -1 -1 -0.764526 -0.746931 -1 -1 -1 -1 -0.759873 -0.76495 -1 -1 -0.76495 -0.7477 -0.759873 -0.76495 -0.519746 -0.487819 -0.76495 -0.7477 -0.487819 -0.494657 -0.579045 -0.549395 -0.439333 -0.360703 -0.549395 -0.519746 -0.360703 -0.324262 -0.439333 -0.360703 -0.299621 -0.251563 -0.360703 -0.324262 -0.251563 -0.193543 -0.519746 -0.487819 -0.324262 -0.318574 -0.487819 -0.494657 -0.318574 -0.31682 -0.324262 -0.318574 -0.193543 -0.182917 -0.318574 -0.31682 -0.182917 -0.172292 -0.579045 -0.439333 -0.549395 -0.360703 -0.439333 -0.299621 -0.360703 -0.251563 -0.549395 -0.360703 -0.519746 -0.324262 -0.360703 -0.251563 -0.324262 -0.193543 -1 -0.759873 -1 -0.76495 -0.759873 -0.519746 -0.76495 -0.487819 -1 -0.76495 -1 -0.7477 -0.76495 -0.487819 -0.7477 -0.494657 -0.519746 -0.324262 -0.487819 -0.318574 -0.324262 -0.193543 -0.318574 -0.182917 -0.487819 -0.318574 -0.494657 -0.31682 -0.318574 -0.182917 -0.31682 -0.172292 -0.299621 -0.251563 -0.251563 -0.159181 -0.251563 -0.193543 -0.159181 -0.123629 -0.251563 -0.159181 -0.193543 -0.123629 -0.159181 -0.123629 -0.123629 -0.0537154 -1 -1 -0.746906 -0.776441 -1 -1 -0.776441 -0.759546 -0.746906 -0.776441 -0.493812 -0.483697 -0.776441 -0.759546 -0.483697 -0.519092 -0.493812 -0.483697 -0.327927 -0.314427 -0.483697 -0.519092 -0.314427 -0.324219 -0.327927 -0.314427 -0.162043 -0.179229 -0.314427 -0.324219 -0.179229 -0.196416 -0.519092 -0.549187 -0.324219 -0.360557 -0.549187 -0.579283 -0.360557 -0.439351 -0.324219 -0.360557 -0.196416 -0.250048 -0.360557 -0.439351 -0.250048 -0.299419 -0.196416 -0.250048 -0.122252 -0.156941 -0.250048 -0.299419 -0.156941 -0.250169 -0.122252 -0.156941 -0.0480884 -0.122425 -0.156941 -0.250169 -0.122425 -0.196761 -0.299419 -0.439391 -0.250169 -0.3608 -0.439391 -0.579362 -0.3608 -0.549472 -0.250169 -0.3608 -0.196761 -0.324644 -0.3608 -0.549472 -0.324644 -0.519581 -0.196761 -0.324644 -0.17947 -0.314661 -0.324644 -0.519581 -0.314661 -0.483666 -0.17947 -0.314661 -0.162179 -0.328273 -0.314661 -0.483666 -0.328273 -0.494368 -0.519581 -0.759791 -0.483666 -0.776423 -0.759791 -1 -0.776423 -1 -0.483666 -0.776423 -0.494368 -0.747184 -0.776423 -1 -0.747184 -1 -1 -0.746906 -1 -0.776439 -0.746906 -0.493812 -0.776439 -0.483691 -1 -0.776439 -1 -0.759542 -0.776439 -0.483691 -0.759542 -0.519084 -0.493812 -0.327913 -0.483691 -0.314414 -0.327913 -0.162014 -0.314414 -0.179195 -0.483691 -0.314414 -0.519084 -0.324199 -0.314414 -0.179195 -0.324199 -0.196377 -0.519084 -0.324199 -0.549182 -0.360528 -0.324199 -0.196377 -0.360528 -0.249981 -0.549182 -0.360528 -0.57928 -0.439303 -0.360528 -0.249981 -0.439303 -0.299325 -0.196377 -0.12223 -0.249981 -0.156829 -0.12223 -0.0480824 -0.156829 -0.12223 -0.249981 -0.156829 -0.299325 -0.249981 -0.156829 -0.12223 -0.249981 -0.196377 -0.299325 -0.249981 -0.439303 -0.360528 -0.249981 -0.196377 -0.360528 -0.324199 -0.439303 -0.360528 -0.57928 -0.549182 -0.360528 -0.324199 -0.549182 -0.519084 -0.196377 -0.179195 -0.324199 -0.314415 -0.179195 -0.162014 -0.314415 -0.327913 -0.324199 -0.314415 -0.519084 -0.483692 -0.314415 -0.327913 -0.483692 -0.493812 -0.519084 -0.483692 -0.759542 -0.77644 -0.483692 -0.493812 -0.77644 -0.746906 -0.759542 -0.77644 -1 -1 -0.77644 -0.746906 -1 -1 -0.142687 -0.317239 -0.15422 -0.300649 -0.317239 -0.491792 -0.300649 -0.482074 -0.15422 -0.300649 -0.165754 -0.328819 -0.300649 -0.482074 -0.328819 -0.491885 -0.491792 -0.745896 -0.482074 -0.776589 -0.745896 -1 -0.776589 -1 -0.482074 -0.776589 -0.491885 -0.745943 -0.776589 -1 -0.745943 -1 -0.164971 -0.166431 -0.329226 -0.308437 -0.166431 -0.16789 -0.308437 -0.331146 -0.329226 -0.308437 -0.493481 -0.484679 -0.308437 -0.331146 -0.484679 -0.494401 -0.493481 -0.484679 -0.746741 -0.777036 -0.484679 -0.494401 -0.777036 -0.747201 -0.746741 -0.777036 -1 -1 -0.777036 -0.747201 -1 -1 -0.0513026 -0.122879 -0.119647 -0.158502 -0.122879 -0.194455 -0.158502 -0.250752 -0.119647 -0.158502 -0.187992 -0.255947 -0.158502 -0.250752 -0.255947 -0.300281 -0.161257 -0.32777 -0.177856 -0.31438 -0.32777 -0.494282 -0.31438 -0.483801 -0.177856 -0.31438 -0.194455 -0.32432 -0.31438 -0.483801 -0.32432 -0.519112 -0.494282 -0.747141 -0.483801 -0.776547 -0.747141 -1 -0.776547 -1 -0.483801 -0.776547 -0.519112 -0.759556 -0.776547 -1 -0.759556 -1 -0.194455 -0.32432 -0.250752 -0.360916 -0.32432 -0.519112 -0.360916 -0.549552 -0.250752 -0.360916 -0.300281 -0.440137 -0.360916 -0.549552 -0.440137 -0.579993 -0.187992 -0.255947 -0.351351 -0.361787 -0.255947 -0.300281 -0.361787 -0.441895 -0.351351 -0.361787 -0.51471 -0.54911 -0.361787 -0.441895 -0.54911 -0.58351 
