# vtk DataFile Version 3.0
#This file was generated by the deal.II library on 2015/5/19 at 10:59:21
ASCII
DATASET UNSTRUCTURED_GRID

POINTS 64 double
-1 -1 0
-0.5 -1 0
-1 -0.5 0
-0.5 -0.5 0
-0.5 -1 0
0 -1 0
-0.5 -0.5 0
0 -0.5 0
-1 -0.5 0
-0.5 -0.5 0
-1 0 0
-0.5 0 0
-0.5 -0.5 0
0 -0.5 0
-0.5 0 0
0 0 0
0 -1 0
0.5 -1 0
0 -0.5 0
0.5 -0.5 0
0.5 -1 0
1 -1 0
0.5 -0.5 0
1 -0.5 0
0 -0.5 0
0.5 -0.5 0
0 0 0
0.5 0 0
0.5 -0.5 0
1 -0.5 0
0.5 0 0
1 0 0
-1 0 0
-0.5 0 0
-1 0.5 0
-0.5 0.5 0
-0.5 0 0
0 0 0
-0.5 0.5 0
0 0.5 0
-1 0.5 0
-0.5 0.5 0
-1 1 0
-0.5 1 0
-0.5 0.5 0
0 0.5 0
-0.5 1 0
0 1 0
0 0 0
0.5 0 0
0 0.5 0
0.5 0.5 0
0.5 0 0
1 0 0
0.5 0.5 0
1 0.5 0
0 0.5 0
0.5 0.5 0
0 1 0
0.5 1 0
0.5 0.5 0
1 0.5 0
0.5 1 0
1 1 0

CELLS 16 80
4	0	1	3	2
4	4	5	7	6
4	8	9	11	10
4	12	13	15	14
4	16	17	19	18
4	20	21	23	22
4	24	25	27	26
4	28	29	31	30
4	32	33	35	34
4	36	37	39	38
4	40	41	43	42
4	44	45	47	46
4	48	49	51	50
4	52	53	55	54
4	56	57	59	58
4	60	61	63	62

CELL_TYPES 16
 9 9 9 9 9 9 9 9 9 9 9 9 9 9 9 9
POINT_DATA 64
SCALARS V double 1
LOOKUP_TABLE default
1.98605 1.73779 1.73779 0.501777 1.73779 1.48954 0.501777 0.165449 1.73779 0.501777 1.48954 0.165449 0.501777 0.165449 0.165449 -0.142656 1.48954 1.24128 0.165449 0.291146 1.24128 0.993024 0.291146 0.744768 0.165449 0.291146 -0.142656 0.0335959 0.291146 0.744768 0.0335959 0.496512 1.48954 0.165449 1.24128 0.291146 0.165449 -0.142656 0.291146 0.0335959 1.24128 0.291146 0.993024 0.744768 0.291146 0.0335959 0.744768 0.496512 -0.142656 0.0335959 0.0335959 0.0805146 0.0335959 0.496512 0.0805146 0.248256 0.0335959 0.0805146 0.496512 0.248256 0.0805146 0.248256 0.248256 0 
