# vtk DataFile Version 3.0
#This file was generated by the deal.II library on 2015/5/12 at 16: 3:48
ASCII
DATASET UNSTRUCTURED_GRID

POINTS 2632 double
0 0 0
5 0 0
0 5 0
5 5 0
5 0 0
10 0 0
5 5 0
10 5 0
0 5 0
5 5 0
0 10 0
5 10 0
5 5 0
10 5 0
5 10 0
10 10 0
0 -5 0
2.5 -5 0
0 -2.5 0
2.5 -2.5 0
2.5 -5 0
5 -5 0
2.5 -2.5 0
5 -2.5 0
0 -2.5 0
2.5 -2.5 0
0 0 0
2.5 0 0
2.5 -2.5 0
5 -2.5 0
2.5 0 0
5 0 0
5 -5 0
7.5 -5 0
5 -2.5 0
7.5 -2.5 0
7.5 -5 0
10 -5 0
7.5 -2.5 0
10 -2.5 0
5 -2.5 0
7.5 -2.5 0
5 0 0
7.5 0 0
7.5 -2.5 0
10 -2.5 0
7.5 0 0
10 0 0
-5 0 0
-2.5 0 0
-5 2.5 0
-2.5 2.5 0
-2.5 0 0
0 0 0
-2.5 2.5 0
0 2.5 0
-5 2.5 0
-2.5 2.5 0
-5 5 0
-2.5 5 0
-2.5 2.5 0
0 2.5 0
-2.5 5 0
0 5 0
-5 -5 0
-2.5 -5 0
-5 -2.5 0
-2.5 -2.5 0
-2.5 -5 0
0 -5 0
-2.5 -2.5 0
0 -2.5 0
-5 -2.5 0
-2.5 -2.5 0
-5 0 0
-2.5 0 0
-2.5 -2.5 0
0 -2.5 0
-2.5 0 0
0 0 0
-2.5 5 0
0 5 0
-2.5 7.5 0
0 7.5 0
-5 7.5 0
-2.5 7.5 0
-5 10 0
-2.5 10 0
-2.5 7.5 0
0 7.5 0
-2.5 10 0
0 10 0
2.5 -7.5 0
3.75 -7.5 0
2.5 -6.25 0
3.75 -6.25 0
3.75 -7.5 0
5 -7.5 0
3.75 -6.25 0
5 -6.25 0
2.5 -6.25 0
3.75 -6.25 0
2.5 -5 0
3.75 -5 0
3.75 -6.25 0
5 -6.25 0
3.75 -5 0
5 -5 0
-7.5 -7.5 0
-6.25 -7.5 0
-7.5 -6.25 0
-6.25 -6.25 0
-6.25 -7.5 0
-5 -7.5 0
-6.25 -6.25 0
-5 -6.25 0
-7.5 -6.25 0
-6.25 -6.25 0
-7.5 -5 0
-6.25 -5 0
-6.25 -6.25 0
-5 -6.25 0
-6.25 -5 0
-5 -5 0
0 -7.5 0
1.25 -7.5 0
0 -6.25 0
1.25 -6.25 0
1.25 -7.5 0
2.5 -7.5 0
1.25 -6.25 0
2.5 -6.25 0
0 -6.25 0
1.25 -6.25 0
0 -5 0
1.25 -5 0
1.25 -6.25 0
2.5 -6.25 0
1.25 -5 0
2.5 -5 0
-7.5 0 0
-6.25 0 0
-7.5 1.25 0
-6.25 1.25 0
-6.25 0 0
-5 0 0
-6.25 1.25 0
-5 1.25 0
-7.5 1.25 0
-6.25 1.25 0
-7.5 2.5 0
-6.25 2.5 0
-6.25 1.25 0
-5 1.25 0
-6.25 2.5 0
-5 2.5 0
-5 -7.5 0
-3.75 -7.5 0
-5 -6.25 0
-3.75 -6.25 0
-3.75 -7.5 0
-2.5 -7.5 0
-3.75 -6.25 0
-2.5 -6.25 0
-5 -6.25 0
-3.75 -6.25 0
-5 -5 0
-3.75 -5 0
-3.75 -6.25 0
-2.5 -6.25 0
-3.75 -5 0
-2.5 -5 0
5 -7.5 0
6.25 -7.5 0
5 -6.25 0
6.25 -6.25 0
6.25 -7.5 0
7.5 -7.5 0
6.25 -6.25 0
7.5 -6.25 0
5 -6.25 0
6.25 -6.25 0
5 -5 0
6.25 -5 0
6.25 -6.25 0
7.5 -6.25 0
6.25 -5 0
7.5 -5 0
-7.5 2.5 0
-6.25 2.5 0
-7.5 3.75 0
-6.25 3.75 0
-6.25 2.5 0
-5 2.5 0
-6.25 3.75 0
-5 3.75 0
-6.25 3.75 0
-5 3.75 0
-6.25 5 0
-5 5 0
-7.5 -5 0
-6.25 -5 0
-7.5 -3.75 0
-6.25 -3.75 0
-6.25 -5 0
-5 -5 0
-6.25 -3.75 0
-5 -3.75 0
-7.5 -3.75 0
-6.25 -3.75 0
-7.5 -2.5 0
-6.25 -2.5 0
-6.25 -3.75 0
-5 -3.75 0
-6.25 -2.5 0
-5 -2.5 0
-10 5 0
-8.75 5 0
-10 6.25 0
-8.75 6.25 0
-10 6.25 0
-8.75 6.25 0
-10 7.5 0
-8.75 7.5 0
7.5 -10 0
8.75 -10 0
7.5 -8.75 0
8.75 -8.75 0
8.75 -10 0
10 -10 0
8.75 -8.75 0
10 -8.75 0
7.5 -8.75 0
8.75 -8.75 0
7.5 -7.5 0
8.75 -7.5 0
8.75 -8.75 0
10 -8.75 0
8.75 -7.5 0
10 -7.5 0
-6.25 5 0
-5 5 0
-6.25 6.25 0
-5 6.25 0
-6.25 6.25 0
-5 6.25 0
-6.25 7.5 0
-5 7.5 0
-2.5 -7.5 0
-1.25 -7.5 0
-2.5 -6.25 0
-1.25 -6.25 0
-1.25 -7.5 0
0 -7.5 0
-1.25 -6.25 0
0 -6.25 0
-2.5 -6.25 0
-1.25 -6.25 0
-2.5 -5 0
-1.25 -5 0
-1.25 -6.25 0
0 -6.25 0
-1.25 -5 0
0 -5 0
-7.5 -2.5 0
-6.25 -2.5 0
-7.5 -1.25 0
-6.25 -1.25 0
-6.25 -2.5 0
-5 -2.5 0
-6.25 -1.25 0
-5 -1.25 0
-7.5 -1.25 0
-6.25 -1.25 0
-7.5 0 0
-6.25 0 0
-6.25 -1.25 0
-5 -1.25 0
-6.25 0 0
-5 0 0
-10 7.5 0
-8.75 7.5 0
-10 8.75 0
-8.75 8.75 0
-10 8.75 0
-8.75 8.75 0
-10 10 0
-8.75 10 0
-8.75 8.75 0
-7.5 8.75 0
-8.75 10 0
-7.5 10 0
-6.25 7.5 0
-5 7.5 0
-6.25 8.75 0
-5 8.75 0
-6.25 8.75 0
-5 8.75 0
-6.25 10 0
-5 10 0
8.75 -7.5 0
10 -7.5 0
8.75 -6.25 0
10 -6.25 0
7.5 -6.25 0
8.75 -6.25 0
7.5 -5 0
8.75 -5 0
8.75 -6.25 0
10 -6.25 0
8.75 -5 0
10 -5 0
-5 5 0
-3.75 5 0
-5 6.25 0
-3.75 6.25 0
-3.75 5 0
-2.5 5 0
-3.75 6.25 0
-2.5 6.25 0
-5 6.25 0
-3.75 6.25 0
-5 7.5 0
-3.75 7.5 0
-3.75 6.25 0
-2.5 6.25 0
-3.75 7.5 0
-2.5 7.5 0
-7.5 -8.75 0
-6.875 -8.75 0
-7.5 -8.125 0
-6.875 -8.125 0
-7.5 -8.125 0
-6.875 -8.125 0
-7.5 -7.5 0
-6.875 -7.5 0
-6.875 -8.125 0
-6.25 -8.125 0
-6.875 -7.5 0
-6.25 -7.5 0
0.625 -8.75 0
1.25 -8.75 0
0.625 -8.125 0
1.25 -8.125 0
0 -8.125 0
0.625 -8.125 0
0 -7.5 0
0.625 -7.5 0
0.625 -8.125 0
1.25 -8.125 0
0.625 -7.5 0
1.25 -7.5 0
1.25 -8.75 0
1.875 -8.75 0
1.25 -8.125 0
1.875 -8.125 0
1.875 -8.75 0
2.5 -8.75 0
1.875 -8.125 0
2.5 -8.125 0
1.25 -8.125 0
1.875 -8.125 0
1.25 -7.5 0
1.875 -7.5 0
1.875 -8.125 0
2.5 -8.125 0
1.875 -7.5 0
2.5 -7.5 0
-6.25 -8.125 0
-5.625 -8.125 0
-6.25 -7.5 0
-5.625 -7.5 0
-5.625 -8.125 0
-5 -8.125 0
-5.625 -7.5 0
-5 -7.5 0
-8.125 0 0
-7.5 0 0
-8.125 0.625 0
-7.5 0.625 0
-8.75 0.625 0
-8.125 0.625 0
-8.75 1.25 0
-8.125 1.25 0
-8.125 0.625 0
-7.5 0.625 0
-8.125 1.25 0
-7.5 1.25 0
-8.75 1.25 0
-8.125 1.25 0
-8.75 1.875 0
-8.125 1.875 0
-8.125 1.25 0
-7.5 1.25 0
-8.125 1.875 0
-7.5 1.875 0
-8.75 1.875 0
-8.125 1.875 0
-8.75 2.5 0
-8.125 2.5 0
-8.125 1.875 0
-7.5 1.875 0
-8.125 2.5 0
-7.5 2.5 0
-8.75 -7.5 0
-8.125 -7.5 0
-8.75 -6.875 0
-8.125 -6.875 0
-8.125 -7.5 0
-7.5 -7.5 0
-8.125 -6.875 0
-7.5 -6.875 0
-8.125 -6.875 0
-7.5 -6.875 0
-8.125 -6.25 0
-7.5 -6.25 0
-8.125 -6.25 0
-7.5 -6.25 0
-8.125 -5.625 0
-7.5 -5.625 0
-8.125 -5.625 0
-7.5 -5.625 0
-8.125 -5 0
-7.5 -5 0
-4.375 -8.75 0
-3.75 -8.75 0
-4.375 -8.125 0
-3.75 -8.125 0
-5 -8.125 0
-4.375 -8.125 0
-5 -7.5 0
-4.375 -7.5 0
-4.375 -8.125 0
-3.75 -8.125 0
-4.375 -7.5 0
-3.75 -7.5 0
-8.125 -8.75 0
-7.5 -8.75 0
-8.125 -8.125 0
-7.5 -8.125 0
-8.75 -8.125 0
-8.125 -8.125 0
-8.75 -7.5 0
-8.125 -7.5 0
-8.125 -8.125 0
-7.5 -8.125 0
-8.125 -7.5 0
-7.5 -7.5 0
-3.75 -8.75 0
-3.125 -8.75 0
-3.75 -8.125 0
-3.125 -8.125 0
-3.125 -8.75 0
-2.5 -8.75 0
-3.125 -8.125 0
-2.5 -8.125 0
-3.75 -8.125 0
-3.125 -8.125 0
-3.75 -7.5 0
-3.125 -7.5 0
-3.125 -8.125 0
-2.5 -8.125 0
-3.125 -7.5 0
-2.5 -7.5 0
-8.125 2.5 0
-7.5 2.5 0
-8.125 3.125 0
-7.5 3.125 0
-8.125 3.125 0
-7.5 3.125 0
-8.125 3.75 0
-7.5 3.75 0
-8.125 -5 0
-7.5 -5 0
-8.125 -4.375 0
-7.5 -4.375 0
-8.75 -4.375 0
-8.125 -4.375 0
-8.75 -3.75 0
-8.125 -3.75 0
-8.125 -4.375 0
-7.5 -4.375 0
-8.125 -3.75 0
-7.5 -3.75 0
-10 3.75 0
-9.375 3.75 0
-10 4.375 0
-9.375 4.375 0
-10 4.375 0
-9.375 4.375 0
-10 5 0
-9.375 5 0
-9.375 4.375 0
-8.75 4.375 0
-9.375 5 0
-8.75 5 0
-8.75 3.75 0
-8.125 3.75 0
-8.75 4.375 0
-8.125 4.375 0
-8.125 3.75 0
-7.5 3.75 0
-8.125 4.375 0
-7.5 4.375 0
-8.75 4.375 0
-8.125 4.375 0
-8.75 5 0
-8.125 5 0
-8.125 4.375 0
-7.5 4.375 0
-8.125 5 0
-7.5 5 0
3.125 -10 0
3.75 -10 0
3.125 -9.375 0
3.75 -9.375 0
3.125 -8.75 0
3.75 -8.75 0
3.125 -8.125 0
3.75 -8.125 0
2.5 -8.125 0
3.125 -8.125 0
2.5 -7.5 0
3.125 -7.5 0
3.125 -8.125 0
3.75 -8.125 0
3.125 -7.5 0
3.75 -7.5 0
5 -8.125 0
5.625 -8.125 0
5 -7.5 0
5.625 -7.5 0
5.625 -8.125 0
6.25 -8.125 0
5.625 -7.5 0
6.25 -7.5 0
5.625 -10 0
6.25 -10 0
5.625 -9.375 0
6.25 -9.375 0
5.625 -9.375 0
6.25 -9.375 0
5.625 -8.75 0
6.25 -8.75 0
-2.5 -8.75 0
-1.875 -8.75 0
-2.5 -8.125 0
-1.875 -8.125 0
-2.5 -8.125 0
-1.875 -8.125 0
-2.5 -7.5 0
-1.875 -7.5 0
-1.875 -8.125 0
-1.25 -8.125 0
-1.875 -7.5 0
-1.25 -7.5 0
3.75 -10 0
4.375 -10 0
3.75 -9.375 0
4.375 -9.375 0
4.375 -10 0
5 -10 0
4.375 -9.375 0
5 -9.375 0
3.75 -9.375 0
4.375 -9.375 0
3.75 -8.75 0
4.375 -8.75 0
4.375 -9.375 0
5 -9.375 0
4.375 -8.75 0
5 -8.75 0
-1.25 -8.125 0
-0.625 -8.125 0
-1.25 -7.5 0
-0.625 -7.5 0
-0.625 -8.125 0
0 -8.125 0
-0.625 -7.5 0
0 -7.5 0
-8.75 -3.75 0
-8.125 -3.75 0
-8.75 -3.125 0
-8.125 -3.125 0
-8.125 -3.75 0
-7.5 -3.75 0
-8.125 -3.125 0
-7.5 -3.125 0
-8.75 -3.125 0
-8.125 -3.125 0
-8.75 -2.5 0
-8.125 -2.5 0
-8.125 -3.125 0
-7.5 -3.125 0
-8.125 -2.5 0
-7.5 -2.5 0
-8.75 -2.5 0
-8.125 -2.5 0
-8.75 -1.875 0
-8.125 -1.875 0
-8.125 -2.5 0
-7.5 -2.5 0
-8.125 -1.875 0
-7.5 -1.875 0
-8.125 -1.875 0
-7.5 -1.875 0
-8.125 -1.25 0
-7.5 -1.25 0
-8.125 -1.25 0
-7.5 -1.25 0
-8.125 -0.625 0
-7.5 -0.625 0
-8.125 -0.625 0
-7.5 -0.625 0
-8.125 0 0
-7.5 0 0
3.75 -8.75 0
4.375 -8.75 0
3.75 -8.125 0
4.375 -8.125 0
3.75 -8.125 0
4.375 -8.125 0
3.75 -7.5 0
4.375 -7.5 0
4.375 -8.125 0
5 -8.125 0
4.375 -7.5 0
5 -7.5 0
-8.75 5 0
-8.125 5 0
-8.75 5.625 0
-8.125 5.625 0
-8.75 5.625 0
-8.125 5.625 0
-8.75 6.25 0
-8.125 6.25 0
-8.125 5.625 0
-7.5 5.625 0
-8.125 6.25 0
-7.5 6.25 0
6.25 -8.75 0
6.875 -8.75 0
6.25 -8.125 0
6.875 -8.125 0
6.875 -8.75 0
7.5 -8.75 0
6.875 -8.125 0
7.5 -8.125 0
6.25 -8.125 0
6.875 -8.125 0
6.25 -7.5 0
6.875 -7.5 0
6.875 -8.125 0
7.5 -8.125 0
6.875 -7.5 0
7.5 -7.5 0
6.25 -10 0
6.875 -10 0
6.25 -9.375 0
6.875 -9.375 0
6.875 -10 0
7.5 -10 0
6.875 -9.375 0
7.5 -9.375 0
6.875 -9.375 0
7.5 -9.375 0
6.875 -8.75 0
7.5 -8.75 0
-7.5 3.75 0
-6.875 3.75 0
-7.5 4.375 0
-6.875 4.375 0
-6.875 3.75 0
-6.25 3.75 0
-6.875 4.375 0
-6.25 4.375 0
-7.5 4.375 0
-6.875 4.375 0
-7.5 5 0
-6.875 5 0
-6.875 4.375 0
-6.25 4.375 0
-6.875 5 0
-6.25 5 0
-6.875 5 0
-6.25 5 0
-6.875 5.625 0
-6.25 5.625 0
-7.5 5.625 0
-6.875 5.625 0
-7.5 6.25 0
-6.875 6.25 0
-6.875 5.625 0
-6.25 5.625 0
-6.875 6.25 0
-6.25 6.25 0
-7.5 8.75 0
-6.875 8.75 0
-7.5 9.375 0
-6.875 9.375 0
-6.875 8.75 0
-6.25 8.75 0
-6.875 9.375 0
-6.25 9.375 0
-7.5 9.375 0
-6.875 9.375 0
-7.5 10 0
-6.875 10 0
-6.875 9.375 0
-6.25 9.375 0
-6.875 10 0
-6.25 10 0
-8.75 6.25 0
-8.125 6.25 0
-8.75 6.875 0
-8.125 6.875 0
-8.75 6.875 0
-8.125 6.875 0
-8.75 7.5 0
-8.125 7.5 0
7.5 -7.5 0
8.125 -7.5 0
7.5 -6.875 0
8.125 -6.875 0
8.125 -7.5 0
8.75 -7.5 0
8.125 -6.875 0
8.75 -6.875 0
7.5 -6.875 0
8.125 -6.875 0
7.5 -6.25 0
8.125 -6.25 0
8.125 -6.875 0
8.75 -6.875 0
8.125 -6.25 0
8.75 -6.25 0
-6.875 6.25 0
-6.25 6.25 0
-6.875 6.875 0
-6.25 6.875 0
-6.875 6.875 0
-6.25 6.875 0
-6.875 7.5 0
-6.25 7.5 0
-8.75 7.5 0
-8.125 7.5 0
-8.75 8.125 0
-8.125 8.125 0
-8.125 7.5 0
-7.5 7.5 0
-8.125 8.125 0
-7.5 8.125 0
-8.75 8.125 0
-8.125 8.125 0
-8.75 8.75 0
-8.125 8.75 0
-8.125 8.125 0
-7.5 8.125 0
-8.125 8.75 0
-7.5 8.75 0
-7.5 7.5 0
-6.875 7.5 0
-7.5 8.125 0
-6.875 8.125 0
-6.875 7.5 0
-6.25 7.5 0
-6.875 8.125 0
-6.25 8.125 0
-7.5 8.125 0
-6.875 8.125 0
-7.5 8.75 0
-6.875 8.75 0
-6.875 8.125 0
-6.25 8.125 0
-6.875 8.75 0
-6.25 8.75 0
-10 -10 0
-9.6875 -10 0
-10 -9.6875 0
-9.6875 -9.6875 0
-9.6875 -10 0
-9.375 -10 0
-9.6875 -9.6875 0
-9.375 -9.6875 0
-10 -9.6875 0
-9.6875 -9.6875 0
-10 -9.375 0
-9.6875 -9.375 0
-9.6875 -9.6875 0
-9.375 -9.6875 0
-9.6875 -9.375 0
-9.375 -9.375 0
-9.375 -10 0
-9.0625 -10 0
-9.375 -9.6875 0
-9.0625 -9.6875 0
[...]
POINT_DATA 2632
SCALARS V double 1
LOOKUP_TABLE default
0.0157446 -0.00721981 -0.0245468 0.00658361 -0.00721981 0 0.00658361 0 -0.0245468 0.00658361 0 0 0.00658361 0 0 0 0.00108885 0.00976297 0.00939422 0.00756357 0.00976297 0.0277747 0.00756357 0.00477709 0.00939422 0.00756357 0.0157446 0.00426239 0.00756357 0.00477709 0.00426239 -0.00721981 0.0277747 -0.0132573 0.00477709 0.0085029 -0.0132573 0 0.0085029 0 0.00477709 0.0085029 -0.00721981 -0.0036099 0.0085029 0 -0.0036099 0 -0.00226391 0.00742134 0.052302 0.0315629 0.00742134 0.0157446 0.0315629 -0.00440112 0.052302 0.0315629 0.0817156 0.0540843 0.0315629 -0.00440112 0.0540843 -0.0245468 0.00634238 0.00301024 0.000171861 0.00598105 0.00301024 0.00108885 0.00598105 0.00939422 0.000171861 0.00598105 -0.00226391 0.00742134 0.00598105 0.00939422 0.00742134 0.0157446 0.0540843 -0.0245468 0.0297609 -0.0122734 0.0329726 0.0297609 0 0 0.0297609 -0.0122734 0 0 0.0234667 0.132092 0.0210087 0.0915646 0.132092 0.0788152 0.0915646 0.130692 0.0210087 0.0915646 0.00976297 0.0187688 0.0915646 0.130692 0.0187688 0.0277747 0.00165481 -0.00078652 -0.00113552 -0.00742319 -0.00078652 0.003061 -0.00742319 -0.000780171 -0.00113552 -0.00742319 0.00250354 -0.00123086 -0.00742319 -0.000780171 -0.00123086 0.00634238 0.00509876 0.00147326 0.00189299 0.00429295 0.00147326 0.0234667 0.00429295 0.0210087 0.00189299 0.00429295 0.00108885 0.00542591 0.00429295 0.0210087 0.00542591 0.00976297 -0.0118411 -0.00952348 -0.032139 -0.0123279 -0.00952348 -0.00226391 -0.0123279 0.0250191 -0.032139 -0.0123279 -0.138753 -0.0295188 -0.0123279 0.0250191 -0.0295188 0.052302 0.003061 0.000761581 -0.000780171 -0.000453436 0.000761581 -0.00154618 -0.000453436 0.00099115 -0.000780171 -0.000453436 0.00634238 0.00467631 -0.000453436 0.00099115 0.00467631 0.00301024 0.0788152 -0.19295 0.130692 -0.04613 -0.19295 -0.274375 -0.04613 -0.209811 0.130692 -0.04613 0.0277747 0.00725867 -0.04613 -0.209811 0.00725867 -0.0132573 -0.138753 -0.0295188 -0.422698 -0.157142 -0.0295188 0.052302 -0.157142 0.0670088 -0.157142 0.0670088 -0.302443 0.0817156 0.00250354 -0.00123086 0.00141343 -0.000540658 -0.00123086 0.00634238 -0.000540658 0.00325712 0.00141343 -0.000540658 -0.000777844 0.000470034 -0.000540658 0.00325712 0.000470034 0.000171861 3.441 1.07667 2.82654 1.10065 2.82654 1.10065 2.21207 0.840677 2.21207 1.59761 0.690471 0.711905 1.59761 0.983144 0.711905 0.368679 0.690471 0.711905 -0.274375 -0.116918 0.711905 0.368679 -0.116918 0 -0.302443 0.0817156 -0.299872 0.0573441 -0.299872 0.0573441 -0.246569 0.0329726 -0.00154618 0.00100368 0.00099115 0.00141224 0.00100368 0.00509876 0.00141224 0.00189299 0.00099115 0.00141224 0.00301024 0.00204955 0.00141224 0.00189299 0.00204955 0.00108885 -0.000777844 0.000470034 -0.00381114 -0.00411246 0.000470034 0.000171861 -0.00411246 -0.00104603 -0.00381114 -0.00411246 -0.0118411 -0.00952348 -0.00411246 -0.00104603 -0.00952348 -0.00226391 2.21207 0.840677 1.59761 0.668239 1.59761 0.668239 0.983144 0.368679 0.668239 -0.174555 0.368679 0 -0.246569 0.0329726 -0.146873 0.0164863 -0.146873 0.0164863 0 0 -0.116918 0 -0.126623 0 -0.209811 -0.126623 -0.0132573 -0.00662866 -0.126623 0 -0.00662866 0 0.0817156 0.0678999 0.0573441 0.0496334 0.0678999 0.0540843 0.0496334 0.0419226 0.0573441 0.0496334 0.0329726 0.0313668 0.0496334 0.0419226 0.0313668 0.0297609 0.248996 0.209887 0.0172841 -0.00212005 0.0172841 -0.00212005 0.00165481 0.000434145 -0.00212005 0.00773065 0.000434145 -0.00078652 0.201756 0.257848 0.000979258 0.0139497 0.00351685 0.000979258 0.00509876 0.00328601 0.000979258 0.0139497 0.00328601 0.00147326 0.257848 0.279597 0.0139497 0.0119275 0.279597 0.264406 0.0119275 0.012921 0.0139497 0.0119275 0.00147326 0.01247 0.0119275 0.012921 0.01247 0.0234667 0.00773065 0.00948664 -0.00078652 0.00113724 0.00948664 0.00978392 0.00113724 0.003061 -0.0049503 -0.0118411 -0.0149948 -0.0219901 0.198291 -0.0149948 0.250142 -0.0153657 -0.0149948 -0.0219901 -0.0153657 -0.032139 0.250142 -0.0153657 0.235551 -0.0489523 -0.0153657 -0.032139 -0.0489523 -0.085446 0.235551 -0.0489523 0.128483 -0.169337 -0.0489523 -0.085446 -0.169337 -0.138753 0.248994 0.0172582 0.209882 -0.00221134 0.0172582 0.00165481 -0.00221134 0.000259645 -0.00221134 0.000259645 0.00754848 -0.00113552 0.00754848 -0.00113552 0.00921499 0.000684008 0.00921499 0.000684008 0.00954788 0.00250354 0.197042 0.221298 0.000551268 0.0135618 0.00978392 0.000551268 0.003061 0.00191129 0.000551268 0.0135618 0.00191129 0.000761581 0.266873 0.248996 0.016727 0.0172841 0.266872 0.016727 0.248994 0.0172582 0.016727 0.0172841 0.0172582 0.00165481 0.221298 0.21625 0.0135618 0.00847813 0.21625 0.206342 0.00847813 0.010187 0.0135618 0.00847813 0.000761581 -0.000392302 0.00847813 0.010187 -0.000392302 -0.00154618 -0.169337 -0.138753 -0.32558 -0.280726 -0.32558 -0.280726 -0.406343 -0.422698 0.00954788 0.00250354 0.000523697 0.00195848 0.197028 0.000523697 0.221303 0.0138491 0.000523697 0.00195848 0.0138491 0.00141343 4.05547 1.74897 3.74824 2.00953 3.74824 2.00953 3.441 2.25382 2.00953 0.620408 2.25382 1.07667 0.18866 -0.406343 0.620408 -0.138199 -0.406343 -0.422698 -0.138199 -0.422765 0.620408 -0.138199 1.07667 0.169429 -0.138199 -0.422765 0.169429 -0.40534 4.3627 4.05547 1.52156 1.42763 0.226397 0.212685 0.0407059 0.0661187 0.012921 0.0407059 0.0234667 0.0777791 0.0407059 0.0661187 0.0777791 0.132092 -0.0797592 -0.193244 0.0788152 -0.0570672 -0.193244 -0.239281 -0.0570672 -0.19295 3.13377 2.82654 1.32024 1.28617 1.32024 1.28617 0.097173 0.139367 0.206342 0.178701 0.010187 -0.00408322 0.010187 -0.00408322 -0.00154618 -0.000271254 -0.00408322 0.000534175 -0.000271254 0.00100368 4.05547 3.74824 1.42763 1.41669 3.74824 3.441 1.41669 1.3506 1.42763 1.41669 0.212685 0.195215 1.41669 1.3506 0.195215 0.143143 0.000534175 0.00141429 0.00100368 0.00305122 0.00141429 0.00351685 0.00305122 0.00509876 0.221303 0.0138491 0.216278 0.00908964 0.0138491 0.00141343 0.00908964 0.000317793 0.216278 0.00908964 0.206351 0.0105046 0.00908964 0.000317793 0.0105046 -0.000777844 0.206351 0.0105046 0.178634 -0.00494867 0.0105046 -0.000777844 -0.00494867 -0.00229449 -0.00494867 -0.00229449 -0.00221615 -0.00381114 -0.00221615 -0.00381114 -0.0032501 -0.00782612 -0.0032501 -0.00782612 -0.0049503 -0.0118411 0.212685 0.195215 0.0661187 -0.0116683 0.0661187 -0.0116683 0.132092 0.105453 -0.0116683 -0.0797592 0.105453 0.0788152 1.07667 0.169429 1.11228 0.279233 1.11228 0.279233 1.10065 0.330217 0.279233 -0.378199 0.330217 -0.383714 0.139367 0.405579 -0.239281 -0.0906717 0.405579 0.690471 -0.0906717 0.182673 -0.239281 -0.0906717 -0.19295 -0.233662 -0.0906717 0.182673 -0.233662 -0.274375 2.82654 2.51931 1.28617 1.35505 2.51931 2.21207 1.35505 1.45127 1.35505 1.45127 0.405579 0.690471 -0.422698 -0.28992 -0.422765 -0.347904 -0.28992 -0.157142 -0.347904 -0.229793 -0.422765 -0.347904 -0.40534 -0.402021 -0.347904 -0.229793 -0.402021 -0.302443 -0.402021 -0.302443 -0.473007 -0.301158 -0.378199 -0.473007 -0.383714 -0.371157 -0.473007 -0.301158 -0.371157 -0.299872 -0.174555 -0.160714 -0.0872775 -0.080357 -0.160714 -0.146873 -0.080357 -0.0734365 -0.0872775 -0.080357 0 0 -0.080357 -0.0734365 0 0 1.10065 0.330217 0.970661 0.281195 0.970661 0.281195 0.840677 0.229545 -0.274375 -0.195646 -0.242093 -0.181932 -0.195646 -0.116918 -0.181932 -0.12177 -0.242093 -0.181932 -0.209811 -0.168217 -0.181932 -0.12177 -0.168217 -0.126623 -0.371157 -0.299872 -0.342423 -0.27322 -0.342423 -0.27322 -0.313302 -0.246569 0.840677 0.229545 0.754458 0.232321 0.229545 -0.334424 0.232321 -0.252823 0.754458 0.232321 0.668239 0.227433 0.232321 -0.252823 0.227433 -0.174555 -0.334424 -0.313302 -0.252823 -0.246467 -0.313302 -0.246569 -0.246467 -0.196721 -0.252823 -0.246467 -0.174555 -0.160714 -0.246467 -0.196721 -0.160714 -0.146873 10.8146 10.661 10.661 8.86544 10.661 10.5073 8.86544 7.43965 10.661 8.86544 10.5073 7.43965 8.86544 7.43965 7.43965 5.05094 10.5073 10.3537 7.43965 6.57671 10.3537 10.2001 6.57671 6.16666 7.43965 6.57671 5.05094 3.65346 6.57671 6.16666 3.65346 3.0504 10.5073 7.43965 10.3537 6.57671 7.43965 5.05094 6.57671 3.65346 10.3537 6.57671 10.2001 6.16666 6.57671 3.65346 6.16666 3.0504 5.05094 3.65346 3.65346 1.95997 3.65346 3.0504 1.95997 1.25071 3.65346 1.95997 3.0504 1.25071 1.95997 1.25071 1.25071 0.512339 10.2001 10.0465 6.16666 5.99046 10.0465 9.89288 5.99046 5.88823 6.16666 5.99046 3.0504 2.8573 5.99046 5.88823 2.8573 2.79564 9.89288 9.73927 5.88823 5.79588 9.73927 9.58565 5.79588 5.7021 5.88823 5.79588 2.79564 2.75033 5.79588 5.7021 2.75033 2.702 2.702 2.65462 0.963953 0.941298 2.65462 2.60857 0.941298 0.925898 0.963953 0.941298 0.248996 0.241456 0.941298 0.925898 0.241456 0.209887 2.60857 2.56444 0.925898 0.911383 2.56444 2.52165 0.911383 0.896613 0.925898 0.911383 0.209887 0.214523 0.911383 0.896613 0.214523 0.21916 10.2001 6.16666 10.0465 5.99046 6.16666 3.0504 5.99046 2.8573 10.0465 5.99046 9.89288 5.88823 5.99046 2.8573 5.88823 2.79564 2.52165 2.47871 0.896613 0.881962 2.47871 2.43559 0.881962 0.866692 0.896613 0.881962 0.21916 0.216232 0.881962 0.866692 0.216232 0.213305 9.89288 5.88823 9.73927 5.79588 5.88823 2.79564 5.79588 2.75033 9.73927 5.79588 9.58565 5.70211 5.79588 2.75033 5.70211 2.702 2.43559 2.39286 0.866692 0.851856 2.39286 2.35181 0.851856 0.83907 0.866692 0.851856 0.213305 0.21043 0.851856 0.83907 0.21043 0.207555 9.58565 9.43203 5.7021 5.60847 9.43203 9.27842 5.60847 5.51627 5.7021 5.60847 2.702 2.65462 5.60847 5.51627 2.65462 2.60857 9.27842 9.1248 5.51627 5.42487 9.1248 8.97119 5.42487 5.33361 5.51627 5.42487 2.60857 2.56444 5.42487 5.33361 2.56444 2.52165 2.702 0.963956 2.65463 0.941305 0.963956 0.248994 0.941305 0.241452 2.65463 0.941305 2.60859 0.925909 0.941305 0.241452 0.925909 0.209882 2.60859 0.925909 2.56445 0.9114 0.925909 0.209882 0.9114 0.214515 2.56445 0.9114 2.52167 0.896635 0.9114 0.214515 0.896635 0.219147 8.97119 8.81757 5.33361 5.24238 8.81757 8.66395 5.24238 5.15107 5.33361 5.24238 2.52165 2.47871 5.24238 5.15107 2.47871 2.43559 8.66395 8.51034 5.15107 5.05997 8.51034 8.35672 5.05997 4.9697 5.15107 5.05997 2.43559 2.39286 5.05997 4.9697 2.39286 2.35181 2.52167 0.896635 2.47873 0.881989 0.896635 0.219147 0.881989 0.216217 2.47873 0.881989 2.43562 0.866722 0.881989 0.216217 0.866722 0.213287 2.43562 0.866722 2.39289 0.851887 0.866722 0.213287 0.851887 0.210411 2.39289 0.851887 2.35183 0.839094 0.851887 0.210411 0.839094 0.207536 9.58565 5.70211 9.43203 5.60848 5.70211 2.702 5.60848 2.65463 9.43203 5.60848 9.27842 5.51627 5.60848 2.65463 5.51627 2.60859 2.35181 2.3134 0.83907 0.829579 2.3134 2.27767 0.829579 0.821222 0.83907 0.829579 0.207555 0.202298 0.829579 0.821222 0.202298 0.197042 9.27842 5.51627 9.1248 5.42488 5.51627 2.60859 5.42488 2.56445 9.1248 5.42488 8.97119 5.33362 5.42488 2.56445 5.33362 2.52167 3.0504 2.8573 1.25071 1.05049 2.8573 2.79564 1.05049 1.00398 1.25071 1.05049 0.512339 0.313501 1.05049 1.00398 0.313501 0.266873 8.97119 5.33362 8.81757 5.24239 5.33362 2.52167 5.24239 2.47873 8.81757 5.24239 8.66395 5.15108 5.24239 2.47873 5.15108 2.43562 2.79564 2.75033 1.00398 0.984363 2.75033 2.702 0.984363 0.963953 1.00398 0.984363 0.266873 0.255642 0.984363 0.963953 0.255642 0.248996 8.66395 5.15108 8.51034 5.05998 5.15108 2.43562 5.05998 2.39289 8.51034 5.05998 8.35672 4.96971 5.05998 2.39289 4.96971 2.35183 3.0504 1.25071 2.8573 1.05049 1.25071 0.512339 1.05049 0.313501 2.8573 1.05049 2.79564 1.00398 1.05049 0.313501 1.00398 0.266872 8.35672 8.2031 4.9697 4.88081 8.2031 8.04949 4.88081 4.79291 4.9697 4.88081 2.35181 2.3134 4.88081 4.79291 2.3134 2.27767 8.04949 7.89587 4.79291 4.70502 7.89587 7.74226 4.70502 4.61624 4.79291 4.70502 2.27767 2.24199 4.70502 4.61624 2.24199 2.20327 2.79564 1.00398 2.75033 0.984365 1.00398 0.266872 0.984365 0.25564 2.75033 0.984365 2.702 0.963956 0.984365 0.25564 0.963956 0.248994 2.27767 2.24199 0.821222 0.811446 2.24199 2.20327 0.811446 0.803468 0.821222 0.811446 0.197042 0.22048 0.811446 0.803468 0.22048 0.221298 7.74226 7.58864 4.61624 4.52593 7.58864 7.43502 4.52593 4.43467 4.61624 4.52593 2.20327 2.1622 4.52593 4.43467 2.1622 2.11909 7.43502 7.28141 4.43467 4.34303 7.28141 7.12779 4.34303 4.25137 4.43467 4.34303 2.11909 2.0753 4.34303 4.25137 2.0753 2.03141 2.20327 2.1622 0.803468 0.790444 2.1622 2.11909 0.790444 0.775394 0.803468 0.790444 0.221298 0.220228 0.790444 0.775394 0.220228 0.21625 2.11909 2.0753 0.775394 0.759286 2.0753 2.03141 0.759286 0.743303 0.775394 0.759286 0.21625 0.212055 0.759286 0.743303 0.212055 0.206342 7.12779 6.97418 4.25137 4.15967 6.97418 6.82056 4.15967 4.06817 4.25137 4.15967 2.03141 1.98794 4.15967 4.06817 1.98794 1.94378 6.82056 6.66694 4.06817 3.97668 6.66694 6.51333 3.97668 3.8849 4.06817 3.97668 1.94378 1.89963 3.97668 3.8849 1.89963 1.8558 2.35183 0.839094 2.31342 0.82959 0.839094 0.207536 0.82959 0.202282 2.31342 0.82959 2.27767 0.821215 0.82959 0.202282 0.821215 0.197028 2.03141 1.98794 0.743303 0.726113 1.98794 1.94378 0.726113 0.712248 0.743303 0.726113 0.206342 0.201763 0.726113 0.712248 0.201763 0.178701 6.51333 6.35971 3.8849 3.79311 6.35971 6.20609 3.79311 3.70332 3.8849 3.79311 1.8558 1.81183 3.79311 3.70332 1.81183 1.77035 6.20609 6.05248 3.70332 3.62143 6.05248 5.89886 3.62143 3.55549 3.70332 3.62143 1.77035 1.73936 3.62143 3.55549 1.73936 1.72852 1.94378 1.89963 0.712248 0.696867 1.89963 1.8558 0.696867 0.680167 0.712248 0.696867 0.178701 0.178917 0.696867 0.680167 0.178917 0.179132 1.8558 1.81183 0.680167 0.663842 1.81183 1.77035 0.663842 0.649657 0.680167 0.663842 0.179132 0.175041 0.663842 0.649657 0.175041 0.170949 8.35672 4.96971 8.2031 4.88082 4.96971 2.35183 4.88082 2.31342 8.2031 4.88082 8.04949 4.7929 4.88082 2.31342 4.7929 2.27767 1.77035 1.73936 0.649657 0.642123 1.73936 1.72852 0.642123 0.650132 0.649657 0.642123 0.170949 0.173955 0.642123 0.650132 0.173955 0.17696 8.04949 4.7929 7.89587 4.70501 4.7929 2.27767 4.70501 2.24196 7.89587 4.70501 7.74226 4.61622 4.70501 2.24196 4.61622 2.20322 2.27767 0.821215 2.24196 0.811418 0.821215 0.197028 0.811418 0.220475 2.24196 0.811418 2.20322 0.803417 0.811418 0.220475 0.803417 0.221303 7.74226 4.61622 7.58864 4.5259 4.61622 2.20322 4.5259 2.16213 7.58864 4.5259 7.43502 4.43463 4.5259 2.16213 4.43463 2.11901 2.20322 0.803417 2.16213 0.790373 0.803417 0.221303 0.790373 0.220245 2.16213 0.790373 2.11901 0.775308 0.790373 0.220245 0.775308 0.216278 7.43502 4.43463 7.28141 4.34299 4.43463 2.11901 4.34299 2.07523 7.28141 4.34299 7.12779 4.25135 4.34299 2.07523 4.25135 2.03136 2.11901 0.775308 2.07523 0.759204 0.775308 0.216278 0.759204 0.212073 2.07523 0.759204 2.03136 0.743251 0.759204 0.212073 0.743251 0.206351 7.12779 4.25135 6.97418 4.15968 4.25135 2.03136 4.15968 1.98795 6.97418 4.15968 6.82056 4.06822 4.15968 1.98795 4.06822 1.94388 2.03136 0.743251 1.98795 0.726125 0.743251 0.206351 0.726125 0.201734 1.98795 0.726125 1.94388 0.712353 0.726125 0.201734 0.712353 0.178634 6.82056 4.06822 6.66694 3.97677 4.06822 1.94388 3.97677 1.89983 6.66694 3.97677 6.51333 3.88504 3.97677 1.89983 3.88504 1.85612 1.94388 0.712353 1.89983 0.697084 0.712353 0.178634 0.697084 0.178819 1.89983 0.697084 1.85612 0.68051 0.697084 0.178819 0.68051 0.179004 6.51333 3.88504 6.35971 3.79331 3.88504 1.85612 3.79331 1.81225 6.35971 3.79331 6.20609 3.70355 3.79331 1.81225 3.70355 1.77091 1.85612 0.68051 1.81225 0.66432 0.68051 0.179004 0.66432 0.174876 1.81225 0.66432 1.77091 0.650241 0.66432 0.174876 0.650241 0.170747 6.20609 3.70355 6.05248 3.62185 3.70355 1.77091 3.62185 1.73999 6.05248 3.62185 5.89886 3.55535 3.62185 1.73999 3.55535 1.72938 1.77091 0.650241 1.73999 0.642802 0.650241 0.170747 0.642802 0.173411 1.73999 0.642802 1.72938 0.650683 0.642802 0.173411 0.650683 0.176076 5.89886 5.74525 3.55549 3.50601 5.74525 5.59163 3.50601 3.47179 3.55549 3.50601 1.72852 1.74129 3.50601 3.47179 1.74129 1.76488 1.72852 1.74129 0.650132 0.674441 1.74129 1.76488 0.674441 0.708619 0.650132 0.674441 0.17696 0.189358 0.674441 0.708619 0.189358 0.201756 0.209887 0.214523 0.103883 0.108664 0.214523 0.21916 0.108664 0.113445 0.103883 0.108664 -0.00212005 0.0028053 0.108664 0.113445 0.0028053 0.00773065 5.59163 5.43801 3.47179 3.39599 5.43801 5.2844 3.39599 3.52561 3.47179 3.39599 1.76488 1.79323 3.39599 3.52561 1.79323 1.76683 1.76488 1.79323 0.708619 0.737544 1.79323 1.76683 0.737544 0.769359 0.708619 0.737544 0.201756 0.241228 0.737544 0.769359 0.241228 0.257848 1.79761 1.75756 0.781656 0.781242 1.75756 1.71751 0.781242 0.764969 0.781656 0.781242 0.279597 0.28298 0.781242 0.764969 0.28298 0.264406 1.72938 0.650683 1.74163 0.674854 0.650683 0.176076 0.674854 0.187183 1.74163 0.674854 1.76728 0.708155 0.674854 0.187183 0.708155 0.198291 0.17696 0.189358 0.0902384 0.0958031 0.189358 0.201756 0.0958031 0.101368 0.0902384 0.0958031 0.00351685 0.00224806 0.0958031 0.101368 0.00224806 0.000979258 1.76683 1.78222 0.769359 0.780374 1.78222 1.79761 0.780374 0.781656 0.769359 0.780374 0.257848 0.272182 0.780374 0.781656 0.272182 0.279597 0.21916 0.216232 0.113445 0.112421 0.216232 0.213305 0.112421 0.111396 0.113445 0.112421 0.00773065 0.00860864 0.112421 0.111396 0.00860864 0.00948664 5.89886 3.55535 5.74525 3.50883 3.55535 1.72938 3.50883 1.74163 5.74525 3.50883 5.59163 3.46232 3.50883 1.74163 3.46232 1.76728 0.213305 0.21043 0.111396 0.110033 0.21043 0.207555 0.110033 0.10867 0.111396 0.110033 0.00948664 0.00963528 0.110033 0.10867 0.00963528 0.00978392 1.52156 1.46233 0.652113 0.611213 1.46233 1.42763 0.611213 0.673802 0.652113 0.611213 0.226397 0.209609 0.611213 0.673802 0.209609 0.212685 5.59163 3.46232 5.43801 3.43207 3.46232 1.76728 3.43207 1.78686 5.43801 3.43207 5.2844 3.45653 3.43207 1.78686 3.45653 1.80366 1.76728 0.708155 1.78686 0.738135 0.708155 0.198291 0.738135 0.235084 1.78686 0.738135 1.80366 0.754873 0.738135 0.235084 0.754873 0.250142 0.176076 0.0855629 0.187183 0.0886054 0.0855629 -0.0049503 0.0886054 -0.00997256 0.187183 0.0886054 0.198291 0.0916479 0.0886054 -0.00997256 0.0916479 -0.0149948 1.80366 0.754873 1.80257 0.759456 0.754873 0.250142 0.759456 0.252006 1.80257 0.759456 1.75967 0.752597 0.759456 0.252006 0.752597 0.235551 1.75967 0.752597 1.71816 0.717285 0.752597 0.235551 0.717285 0.195145 1.71816 0.717285 1.67665 0.673592 0.717285 0.195145 0.673592 0.128483 0.209882 0.103835 0.214515 0.108592 0.103835 -0.00221134 0.108592 0.00266857 0.214515 0.108592 0.219147 0.113348 0.108592 0.00266857 0.113348 0.00754848 0.219147 0.113348 0.216217 0.112299 0.113348 0.00754848 0.112299 0.00838173 0.216217 0.112299 0.213287 0.111251 0.112299 0.00838173 0.111251 0.00921499 0.213287 0.111251 0.210411 0.109896 0.111251 0.00921499 0.109896 0.00938143 0.210411 0.109896 0.207536 0.108542 0.109896 0.00938143 0.108542 0.00954788 0.207555 0.202298 0.10867 0.103733 0.202298 0.197042 0.103733 0.0987965 0.10867 0.103733 0.00978392 0.0051676 0.103733 0.0987965 0.0051676 0.000551268 0.128483 -0.0204271 0.0953777 -0.0760404 -0.0204271 -0.169337 -0.0760404 -0.247458 0.0953777 -0.0760404 0.0622725 -0.131654 -0.0760404 -0.247458 -0.131654 -0.32558 0.512339 0.313501 0.313501 0.127065 0.313501 0.266873 0.127065 0.0879418 0.313501 0.127065 0.266872 0.0879402 0.127065 0.0879418 0.0879402 0.016727 1.71751 1.61954 0.764969 0.72694 1.61954 1.52156 0.72694 0.652113 0.764969 0.72694 0.264406 0.245401 0.72694 0.652113 0.245401 0.226397 0.0622725 -0.131654 0.125466 -0.120248 -0.131654 -0.32558 -0.120248 -0.365961 0.125466 -0.120248 0.18866 -0.108841 -0.120248 -0.365961 -0.108841 -0.406343 0.207536 0.108542 0.202282 0.103659 0.108542 0.00954788 0.103659 0.00503579 0.202282 0.103659 0.197028 0.098776 0.103659 0.00503579 0.098776 0.000523697 5.2844 5.13078 3.52561 3.4565 5.13078 4.97716 3.4565 3.38739 3.52561 3.4565 1.76683 1.78222 3.4565 3.38739 1.78222 1.79761 4.97716 4.82355 3.38739 3.29056 4.82355 4.66993 3.29056 3.19372 3.38739 3.29056 1.79761 1.75756 3.29056 3.19372 1.75756 1.71751 1.67665 0.673592 1.64797 0.627828 0.673592 0.128483 0.627828 0.0953777 1.64797 0.627828 1.61929 0.84078 0.627828 0.0953777 0.84078 0.0622725 1.74897 0.968813 1.87925 1.14189 0.968813 0.18866 1.14189 0.404534 1.87925 1.14189