# vtk DataFile Version 3.0
#This file was generated by the deal.II library on 2015/5/19 at 10:59:21
ASCII
DATASET UNSTRUCTURED_GRID

POINTS 64 double
-1 -1 0
-0.5 -1 0
-1 -0.5 0
-0.5 -0.5 0
-0.5 -1 0
0 -1 0
-0.5 -0.5 0
0 -0.5 0
-1 -0.5 0
-0.5 -0.5 0
-1 0 0
-0.5 0 0
-0.5 -0.5 0
0 -0.5 0
-0.5 0 0
0 0 0
0 -1 0
0.5 -1 0
0 -0.5 0
0.5 -0.5 0
0.5 -1 0
1 -1 0
0.5 -0.5 0
1 -0.5 0
0 -0.5 0
0.5 -0.5 0
0 0 0
0.5 0 0
0.5 -0.5 0
1 -0.5 0
0.5 0 0
1 0 0
-1 0 0
-0.5 0 0
-1 0.5 0
-0.5 0.5 0
-0.5 0 0
0 0 0
-0.5 0.5 0
0 0.5 0
-1 0.5 0
-0.5 0.5 0
-1 1 0
-0.5 1 0
-0.5 0.5 0
0 0.5 0
-0.5 1 0
0 1 0
0 0 0
0.5 0 0
0 0.5 0
0.5 0.5 0
0.5 0 0
1 0 0
0.5 0.5 0
1 0.5 0
0 0.5 0
0.5 0.5 0
0 1 0
0.5 1 0
0.5 0.5 0
1 0.5 0
0.5 1 0
1 1 0

CELLS 16 80
4	0	1	3	2
4	4	5	7	6
4	8	9	11	10
4	12	13	15	14
4	16	17	19	18
4	20	21	23	22
4	24	25	27	26
4	28	29	31	30
4	32	33	35	34
4	36	37	39	38
4	40	41	43	42
4	44	45	47	46
4	48	49	51	50
4	52	53	55	54
4	56	57	59	58
4	60	61	63	62

CELL_TYPES 16
 9 9 9 9 9 9 9 9 9 9 9 9 9 9 9 9
POINT_DATA 64
SCALARS V double 1
LOOKUP_TABLE default
1.98804 1.73953 1.73953 0.386772 1.73953 1.49103 0.386772 0.0948503 1.73953 0.386772 1.49103 0.0948503 0.386772 0.0948503 0.0948503 -0.15719 1.49103 1.24252 0.0948503 0.22737 1.24252 0.994018 0.22737 0.745513 0.0948503 0.22737 -0.15719 0.0125781 0.22737 0.745513 0.0125781 0.497009 1.49103 0.0948503 1.24252 0.22737 0.0948503 -0.15719 0.22737 0.0125781 1.24252 0.22737 0.994018 0.745513 0.22737 0.0125781 0.745513 0.497009 -0.15719 0.0125781 0.0125781 0.0679675 0.0125781 0.497009 0.0679675 0.248504 0.0125781 0.0679675 0.497009 0.248504 0.0679675 0.248504 0.248504 0 
