# vtk DataFile Version 3.0
#This file was generated by the deal.II library on 2015/5/12 at 16: 3:47
ASCII
DATASET UNSTRUCTURED_GRID

POINTS 2452 double
0 0 0
5 0 0
0 5 0
5 5 0
5 0 0
10 0 0
5 5 0
10 5 0
0 5 0
5 5 0
0 10 0
5 10 0
5 5 0
10 5 0
5 10 0
10 10 0
0 -5 0
2.5 -5 0
0 -2.5 0
2.5 -2.5 0
2.5 -5 0
5 -5 0
2.5 -2.5 0
5 -2.5 0
0 -2.5 0
2.5 -2.5 0
0 0 0
2.5 0 0
2.5 -2.5 0
5 -2.5 0
2.5 0 0
5 0 0
5 -5 0
7.5 -5 0
5 -2.5 0
7.5 -2.5 0
7.5 -5 0
10 -5 0
7.5 -2.5 0
10 -2.5 0
5 -2.5 0
7.5 -2.5 0
5 0 0
7.5 0 0
7.5 -2.5 0
10 -2.5 0
7.5 0 0
10 0 0
-5 0 0
-2.5 0 0
-5 2.5 0
-2.5 2.5 0
-2.5 0 0
0 0 0
-2.5 2.5 0
0 2.5 0
-5 2.5 0
-2.5 2.5 0
-5 5 0
-2.5 5 0
-2.5 2.5 0
0 2.5 0
-2.5 5 0
0 5 0
-5 -5 0
-2.5 -5 0
-5 -2.5 0
-2.5 -2.5 0
-2.5 -5 0
0 -5 0
-2.5 -2.5 0
0 -2.5 0
-5 -2.5 0
-2.5 -2.5 0
-5 0 0
-2.5 0 0
-2.5 -2.5 0
0 -2.5 0
-2.5 0 0
0 0 0
-2.5 5 0
0 5 0
-2.5 7.5 0
0 7.5 0
-5 7.5 0
-2.5 7.5 0
-5 10 0
-2.5 10 0
-2.5 7.5 0
0 7.5 0
-2.5 10 0
0 10 0
2.5 -7.5 0
3.75 -7.5 0
2.5 -6.25 0
3.75 -6.25 0
3.75 -7.5 0
5 -7.5 0
3.75 -6.25 0
5 -6.25 0
2.5 -6.25 0
3.75 -6.25 0
2.5 -5 0
3.75 -5 0
3.75 -6.25 0
5 -6.25 0
3.75 -5 0
5 -5 0
-7.5 -7.5 0
-6.25 -7.5 0
-7.5 -6.25 0
-6.25 -6.25 0
-6.25 -7.5 0
-5 -7.5 0
-6.25 -6.25 0
-5 -6.25 0
-7.5 -6.25 0
-6.25 -6.25 0
-7.5 -5 0
-6.25 -5 0
-6.25 -6.25 0
-5 -6.25 0
-6.25 -5 0
-5 -5 0
0 -7.5 0
1.25 -7.5 0
0 -6.25 0
1.25 -6.25 0
1.25 -7.5 0
2.5 -7.5 0
1.25 -6.25 0
2.5 -6.25 0
0 -6.25 0
1.25 -6.25 0
0 -5 0
1.25 -5 0
1.25 -6.25 0
2.5 -6.25 0
1.25 -5 0
2.5 -5 0
-7.5 0 0
-6.25 0 0
-7.5 1.25 0
-6.25 1.25 0
-6.25 0 0
-5 0 0
-6.25 1.25 0
-5 1.25 0
-7.5 1.25 0
-6.25 1.25 0
-7.5 2.5 0
-6.25 2.5 0
-6.25 1.25 0
-5 1.25 0
-6.25 2.5 0
-5 2.5 0
-5 -7.5 0
-3.75 -7.5 0
-5 -6.25 0
-3.75 -6.25 0
-3.75 -7.5 0
-2.5 -7.5 0
-3.75 -6.25 0
-2.5 -6.25 0
-5 -6.25 0
-3.75 -6.25 0
-5 -5 0
-3.75 -5 0
-3.75 -6.25 0
-2.5 -6.25 0
-3.75 -5 0
-2.5 -5 0
5 -7.5 0
6.25 -7.5 0
5 -6.25 0
6.25 -6.25 0
6.25 -7.5 0
7.5 -7.5 0
6.25 -6.25 0
7.5 -6.25 0
5 -6.25 0
6.25 -6.25 0
5 -5 0
6.25 -5 0
6.25 -6.25 0
7.5 -6.25 0
6.25 -5 0
7.5 -5 0
-7.5 2.5 0
-6.25 2.5 0
-7.5 3.75 0
-6.25 3.75 0
-6.25 2.5 0
-5 2.5 0
-6.25 3.75 0
-5 3.75 0
-6.25 3.75 0
-5 3.75 0
-6.25 5 0
-5 5 0
-7.5 -5 0
-6.25 -5 0
-7.5 -3.75 0
-6.25 -3.75 0
-6.25 -5 0
-5 -5 0
-6.25 -3.75 0
-5 -3.75 0
-7.5 -3.75 0
-6.25 -3.75 0
-7.5 -2.5 0
-6.25 -2.5 0
-6.25 -3.75 0
-5 -3.75 0
-6.25 -2.5 0
-5 -2.5 0
-10 5 0
-8.75 5 0
-10 6.25 0
-8.75 6.25 0
-10 6.25 0
-8.75 6.25 0
-10 7.5 0
-8.75 7.5 0
7.5 -10 0
8.75 -10 0
7.5 -8.75 0
8.75 -8.75 0
8.75 -10 0
10 -10 0
8.75 -8.75 0
10 -8.75 0
7.5 -8.75 0
8.75 -8.75 0
7.5 -7.5 0
8.75 -7.5 0
8.75 -8.75 0
10 -8.75 0
8.75 -7.5 0
10 -7.5 0
-6.25 5 0
-5 5 0
-6.25 6.25 0
-5 6.25 0
-6.25 6.25 0
-5 6.25 0
-6.25 7.5 0
-5 7.5 0
-2.5 -7.5 0
-1.25 -7.5 0
-2.5 -6.25 0
-1.25 -6.25 0
-1.25 -7.5 0
0 -7.5 0
-1.25 -6.25 0
0 -6.25 0
-2.5 -6.25 0
-1.25 -6.25 0
-2.5 -5 0
-1.25 -5 0
-1.25 -6.25 0
0 -6.25 0
-1.25 -5 0
0 -5 0
-7.5 -2.5 0
-6.25 -2.5 0
-7.5 -1.25 0
-6.25 -1.25 0
-6.25 -2.5 0
-5 -2.5 0
-6.25 -1.25 0
-5 -1.25 0
-7.5 -1.25 0
-6.25 -1.25 0
-7.5 0 0
-6.25 0 0
-6.25 -1.25 0
-5 -1.25 0
-6.25 0 0
-5 0 0
-10 7.5 0
-8.75 7.5 0
-10 8.75 0
-8.75 8.75 0
-8.75 7.5 0
-7.5 7.5 0
-8.75 8.75 0
-7.5 8.75 0
-10 8.75 0
-8.75 8.75 0
-10 10 0
-8.75 10 0
-8.75 8.75 0
-7.5 8.75 0
-8.75 10 0
-7.5 10 0
-7.5 7.5 0
-6.25 7.5 0
-7.5 8.75 0
-6.25 8.75 0
-6.25 7.5 0
-5 7.5 0
-6.25 8.75 0
-5 8.75 0
-7.5 8.75 0
-6.25 8.75 0
-7.5 10 0
-6.25 10 0
-6.25 8.75 0
-5 8.75 0
-6.25 10 0
-5 10 0
8.75 -7.5 0
10 -7.5 0
8.75 -6.25 0
10 -6.25 0
7.5 -6.25 0
8.75 -6.25 0
7.5 -5 0
8.75 -5 0
8.75 -6.25 0
10 -6.25 0
8.75 -5 0
10 -5 0
-5 5 0
-3.75 5 0
-5 6.25 0
-3.75 6.25 0
-3.75 5 0
-2.5 5 0
-3.75 6.25 0
-2.5 6.25 0
-5 6.25 0
-3.75 6.25 0
-5 7.5 0
-3.75 7.5 0
-3.75 6.25 0
-2.5 6.25 0
-3.75 7.5 0
-2.5 7.5 0
-7.5 -8.75 0
-6.875 -8.75 0
-7.5 -8.125 0
-6.875 -8.125 0
-7.5 -8.125 0
-6.875 -8.125 0
-7.5 -7.5 0
-6.875 -7.5 0
-6.875 -8.125 0
-6.25 -8.125 0
-6.875 -7.5 0
-6.25 -7.5 0
0 -8.75 0
0.625 -8.75 0
0 -8.125 0
0.625 -8.125 0
0.625 -8.75 0
1.25 -8.75 0
0.625 -8.125 0
1.25 -8.125 0
0 -8.125 0
0.625 -8.125 0
0 -7.5 0
0.625 -7.5 0
0.625 -8.125 0
1.25 -8.125 0
0.625 -7.5 0
1.25 -7.5 0
1.25 -8.75 0
1.875 -8.75 0
1.25 -8.125 0
1.875 -8.125 0
1.875 -8.75 0
2.5 -8.75 0
1.875 -8.125 0
2.5 -8.125 0
1.25 -8.125 0
1.875 -8.125 0
1.25 -7.5 0
1.875 -7.5 0
1.875 -8.125 0
2.5 -8.125 0
1.875 -7.5 0
2.5 -7.5 0
-6.25 -8.125 0
-5.625 -8.125 0
-6.25 -7.5 0
-5.625 -7.5 0
-5.625 -8.125 0
-5 -8.125 0
-5.625 -7.5 0
-5 -7.5 0
-8.75 0 0
-8.125 0 0
-8.75 0.625 0
-8.125 0.625 0
-8.125 0 0
-7.5 0 0
-8.125 0.625 0
-7.5 0.625 0
-8.75 0.625 0
-8.125 0.625 0
-8.75 1.25 0
-8.125 1.25 0
-8.125 0.625 0
-7.5 0.625 0
-8.125 1.25 0
-7.5 1.25 0
-8.75 1.25 0
-8.125 1.25 0
-8.75 1.875 0
-8.125 1.875 0
-8.125 1.25 0
-7.5 1.25 0
-8.125 1.875 0
-7.5 1.875 0
-8.75 1.875 0
-8.125 1.875 0
-8.75 2.5 0
-8.125 2.5 0
-8.125 1.875 0
-7.5 1.875 0
-8.125 2.5 0
-7.5 2.5 0
-8.75 -7.5 0
-8.125 -7.5 0
-8.75 -6.875 0
-8.125 -6.875 0
-8.125 -7.5 0
-7.5 -7.5 0
-8.125 -6.875 0
-7.5 -6.875 0
-8.125 -6.875 0
-7.5 -6.875 0
-8.125 -6.25 0
-7.5 -6.25 0
-8.125 -6.25 0
-7.5 -6.25 0
-8.125 -5.625 0
-7.5 -5.625 0
-8.125 -5.625 0
-7.5 -5.625 0
-8.125 -5 0
-7.5 -5 0
-4.375 -8.75 0
-3.75 -8.75 0
-4.375 -8.125 0
-3.75 -8.125 0
-5 -8.125 0
-4.375 -8.125 0
-5 -7.5 0
-4.375 -7.5 0
-4.375 -8.125 0
-3.75 -8.125 0
-4.375 -7.5 0
-3.75 -7.5 0
-8.125 -8.75 0
-7.5 -8.75 0
-8.125 -8.125 0
-7.5 -8.125 0
-8.75 -8.125 0
-8.125 -8.125 0
-8.75 -7.5 0
-8.125 -7.5 0
-8.125 -8.125 0
-7.5 -8.125 0
-8.125 -7.5 0
-7.5 -7.5 0
-3.75 -8.75 0
-3.125 -8.75 0
-3.75 -8.125 0
-3.125 -8.125 0
-3.125 -8.75 0
-2.5 -8.75 0
-3.125 -8.125 0
-2.5 -8.125 0
-3.75 -8.125 0
-3.125 -8.125 0
-3.75 -7.5 0
-3.125 -7.5 0
-3.125 -8.125 0
-2.5 -8.125 0
-3.125 -7.5 0
-2.5 -7.5 0
-8.125 2.5 0
-7.5 2.5 0
-8.125 3.125 0
-7.5 3.125 0
-8.125 3.125 0
-7.5 3.125 0
-8.125 3.75 0
-7.5 3.75 0
-8.125 -5 0
-7.5 -5 0
-8.125 -4.375 0
-7.5 -4.375 0
-8.75 -4.375 0
-8.125 -4.375 0
-8.75 -3.75 0
-8.125 -3.75 0
-8.125 -4.375 0
-7.5 -4.375 0
-8.125 -3.75 0
-7.5 -3.75 0
-10 3.75 0
-9.375 3.75 0
-10 4.375 0
-9.375 4.375 0
-10 4.375 0
-9.375 4.375 0
-10 5 0
-9.375 5 0
-9.375 4.375 0
-8.75 4.375 0
-9.375 5 0
-8.75 5 0
-8.75 3.75 0
-8.125 3.75 0
-8.75 4.375 0
-8.125 4.375 0
-8.125 3.75 0
-7.5 3.75 0
-8.125 4.375 0
-7.5 4.375 0
-8.75 4.375 0
-8.125 4.375 0
-8.75 5 0
-8.125 5 0
-8.125 4.375 0
-7.5 4.375 0
-8.125 5 0
-7.5 5 0
3.125 -10 0
3.75 -10 0
3.125 -9.375 0
3.75 -9.375 0
2.5 -8.75 0
3.125 -8.75 0
2.5 -8.125 0
3.125 -8.125 0
3.125 -8.75 0
3.75 -8.75 0
3.125 -8.125 0
3.75 -8.125 0
2.5 -8.125 0
3.125 -8.125 0
2.5 -7.5 0
3.125 -7.5 0
3.125 -8.125 0
3.75 -8.125 0
3.125 -7.5 0
3.75 -7.5 0
5 -8.125 0
5.625 -8.125 0
5 -7.5 0
5.625 -7.5 0
5.625 -8.125 0
6.25 -8.125 0
5.625 -7.5 0
6.25 -7.5 0
5 -10 0
5.625 -10 0
5 -9.375 0
5.625 -9.375 0
5.625 -10 0
6.25 -10 0
5.625 -9.375 0
6.25 -9.375 0
5.625 -9.375 0
6.25 -9.375 0
5.625 -8.75 0
6.25 -8.75 0
-2.5 -8.75 0
-1.875 -8.75 0
-2.5 -8.125 0
-1.875 -8.125 0
-1.875 -8.75 0
-1.25 -8.75 0
-1.875 -8.125 0
-1.25 -8.125 0
-2.5 -8.125 0
-1.875 -8.125 0
-2.5 -7.5 0
-1.875 -7.5 0
-1.875 -8.125 0
-1.25 -8.125 0
-1.875 -7.5 0
-1.25 -7.5 0
3.75 -10 0
4.375 -10 0
3.75 -9.375 0
4.375 -9.375 0
4.375 -10 0
5 -10 0
4.375 -9.375 0
5 -9.375 0
3.75 -9.375 0
4.375 -9.375 0
3.75 -8.75 0
4.375 -8.75 0
4.375 -9.375 0
5 -9.375 0
4.375 -8.75 0
5 -8.75 0
-1.25 -8.75 0
-0.625 -8.75 0
-1.25 -8.125 0
-0.625 -8.125 0
-0.625 -8.75 0
0 -8.75 0
-0.625 -8.125 0
0 -8.125 0
-1.25 -8.125 0
-0.625 -8.125 0
-1.25 -7.5 0
-0.625 -7.5 0
-0.625 -8.125 0
0 -8.125 0
-0.625 -7.5 0
0 -7.5 0
-8.75 -3.75 0
-8.125 -3.75 0
-8.75 -3.125 0
-8.125 -3.125 0
-8.125 -3.75 0
-7.5 -3.75 0
-8.125 -3.125 0
-7.5 -3.125 0
-8.75 -3.125 0
-8.125 -3.125 0
-8.75 -2.5 0
-8.125 -2.5 0
-8.125 -3.125 0
-7.5 -3.125 0
-8.125 -2.5 0
-7.5 -2.5 0
-8.75 -2.5 0
-8.125 -2.5 0
-8.75 -1.875 0
-8.125 -1.875 0
-8.125 -2.5 0
-7.5 -2.5 0
-8.125 -1.875 0
-7.5 -1.875 0
-8.75 -1.875 0
-8.125 -1.875 0
-8.75 -1.25 0
-8.125 -1.25 0
-8.125 -1.875 0
-7.5 -1.875 0
-8.125 -1.25 0
-7.5 -1.25 0
-8.75 -1.25 0
-8.125 -1.25 0
-8.75 -0.625 0
-8.125 -0.625 0
-8.125 -1.25 0
-7.5 -1.25 0
-8.125 -0.625 0
-7.5 -0.625 0
-8.75 -0.625 0
-8.125 -0.625 0
-8.75 0 0
-8.125 0 0
-8.125 -0.625 0
-7.5 -0.625 0
-8.125 0 0
-7.5 0 0
3.75 -8.75 0
4.375 -8.75 0
3.75 -8.125 0
4.375 -8.125 0
3.75 -8.125 0
4.375 -8.125 0
3.75 -7.5 0
4.375 -7.5 0
4.375 -8.125 0
5 -8.125 0
4.375 -7.5 0
5 -7.5 0
-8.75 5 0
-8.125 5 0
-8.75 5.625 0
-8.125 5.625 0
-8.75 5.625 0
-8.125 5.625 0
-8.75 6.25 0
-8.125 6.25 0
-8.125 5.625 0
-7.5 5.625 0
-8.125 6.25 0
-7.5 6.25 0
6.25 -8.75 0
6.875 -8.75 0
6.25 -8.125 0
6.875 -8.125 0
6.875 -8.75 0
7.5 -8.75 0
6.875 -8.125 0
7.5 -8.125 0
6.25 -8.125 0
6.875 -8.125 0
6.25 -7.5 0
6.875 -7.5 0
6.875 -8.125 0
7.5 -8.125 0
6.875 -7.5 0
7.5 -7.5 0
6.25 -10 0
6.875 -10 0
6.25 -9.375 0
6.875 -9.375 0
6.875 -10 0
7.5 -10 0
6.875 -9.375 0
7.5 -9.375 0
6.875 -9.375 0
7.5 -9.375 0
6.875 -8.75 0
7.5 -8.75 0
-7.5 3.75 0
-6.875 3.75 0
-7.5 4.375 0
-6.875 4.375 0
-6.875 3.75 0
-6.25 3.75 0
-6.875 4.375 0
-6.25 4.375 0
-7.5 4.375 0
-6.875 4.375 0
-7.5 5 0
-6.875 5 0
-6.875 4.375 0
-6.25 4.375 0
-6.875 5 0
-6.25 5 0
-6.875 5 0
-6.25 5 0
-6.875 5.625 0
-6.25 5.625 0
-7.5 5.625 0
-6.875 5.625 0
-7.5 6.25 0
-6.875 6.25 0
-6.875 5.625 0
-6.25 5.625 0
-6.875 6.25 0
-6.25 6.25 0
-8.75 6.25 0
-8.125 6.25 0
-8.75 6.875 0
-8.125 6.875 0
-8.75 6.875 0
-8.125 6.875 0
-8.75 7.5 0
-8.125 7.5 0
-8.125 6.875 0
-7.5 6.875 0
-8.125 7.5 0
-7.5 7.5 0
7.5 -7.5 0
8.125 -7.5 0
7.5 -6.875 0
8.125 -6.875 0
8.125 -7.5 0
8.75 -7.5 0
8.125 -6.875 0
8.75 -6.875 0
7.5 -6.875 0
8.125 -6.875 0
7.5 -6.25 0
8.125 -6.25 0
8.125 -6.875 0
8.75 -6.875 0
8.125 -6.25 0
8.75 -6.25 0
-6.875 6.25 0
-6.25 6.25 0
-6.875 6.875 0
-6.25 6.875 0
-7.5 6.875 0
-6.875 6.875 0
-7.5 7.5 0
-6.875 7.5 0
-6.875 6.875 0
-6.25 6.875 0
-6.875 7.5 0
-6.25 7.5 0
-10 -10 0
-9.6875 -10 0
-10 -9.6875 0
-9.6875 -9.6875 0
-9.6875 -10 0
-9.375 -10 0
-9.6875 -9.6875 0
-9.375 -9.6875 0
-10 -9.6875 0
-9.6875 -9.6875 0
-10 -9.375 0
[...]
POINT_DATA 2452
SCALARS V double 1
LOOKUP_TABLE default
0.0161245 -0.00750278 -0.0250788 0.00684751 -0.00750278 0 0.00684751 0 -0.0250788 0.00684751 0 0 0.00684751 0 0 0 0.00109816 0.00956914 0.00941251 0.00755726 0.00956914 0.0260085 0.00755726 0.0052599 0.00941251 0.00755726 0.0161245 0.00431086 0.00755726 0.0052599 0.00431086 -0.00750278 0.0260085 -0.00918573 0.0052599 0.00779608 -0.00918573 0 0.00779608 0 0.0052599 0.00779608 -0.00750278 -0.00375139 0.00779608 0 -0.00375139 0 -0.00268441 0.0071927 0.0548049 0.0308878 0.0071927 0.0161245 0.0308878 -0.00447717 0.0548049 0.0308878 0.0958019 0.0524194 0.0308878 -0.00447717 0.0524194 -0.0250788 0.00713739 0.00299994 0.000202709 0.00601272 0.00299994 0.00109816 0.00601272 0.00941251 0.000202709 0.00601272 -0.00268441 0.0071927 0.00601272 0.00941251 0.0071927 0.0161245 0.0524194 -0.0250788 0.0283891 -0.0125394 0.0420038 0.0283891 0 0 0.0283891 -0.0125394 0 0 0.0243471 0.152569 0.0178016 0.0879209 0.152569 0.115622 0.0879209 0.139027 0.0178016 0.0879209 0.00956914 0.0177888 0.0879209 0.139027 0.0177888 0.0260085 0.0028698 -0.002118 -0.00249865 -0.00825002 -0.002118 0.00275417 -0.00825002 -0.000663302 -0.00249865 -0.00825002 0.0020981 -0.00113749 -0.00825002 -0.000663302 -0.00113749 0.00713739 0.00566879 0.00747478 0.00154403 0.00277744 0.00747478 0.0243471 0.00277744 0.0178016 0.00154403 0.00277744 0.00109816 0.00533365 0.00277744 0.0178016 0.00533365 0.00956914 -0.0115527 -0.00975449 -0.0310688 -0.0144273 -0.00975449 -0.00268441 -0.0144273 0.0260602 -0.0310688 -0.0144273 -0.121792 -0.0258286 -0.0144273 0.0260602 -0.0258286 0.0548049 0.00275417 0.00298332 -0.000663302 -0.0017303 0.00298332 0.000354054 -0.0017303 0.00052067 -0.000663302 -0.0017303 0.00713739 0.00506866 -0.0017303 0.00052067 0.00506866 0.00299994 0.115622 -0.186962 0.139027 -0.0454788 -0.186962 -0.331146 -0.0454788 -0.216888 0.139027 -0.0454788 0.0260085 0.00841137 -0.0454788 -0.216888 0.00841137 -0.00918573 -0.121792 -0.0258286 -0.434311 -0.158936 -0.0258286 0.0548049 -0.158936 0.0753034 -0.158936 0.0753034 -0.317511 0.0958019 0.0020981 -0.00113749 0.00369603 -0.00182621 -0.00113749 0.00713739 -0.00182621 0.00367005 0.00369603 -0.00182621 0.00151545 0.000152958 -0.00182621 0.00367005 0.000152958 0.000202709 3.45479 1.13084 2.83787 1.0989 2.83787 1.0989 2.22094 0.828723 2.22094 1.60401 0.717082 0.714882 1.60401 0.987084 0.714882 0.370157 0.717082 0.714882 -0.331146 -0.16042 0.714882 0.370157 -0.16042 0 -0.317511 0.0958019 -0.302168 0.0689029 -0.302168 0.0689029 -0.256577 0.0420038 0.000354054 0.00156567 0.00052067 0.00122441 0.00156567 0.00566879 0.00122441 0.00154403 0.00052067 0.00122441 0.00299994 0.00204905 0.00122441 0.00154403 0.00204905 0.00109816 0.00151545 0.000152958 -0.00362176 -0.00423622 0.000152958 0.000202709 -0.00423622 -0.00124085 -0.00362176 -0.00423622 -0.0115527 -0.00975449 -0.00423622 -0.00124085 -0.00975449 -0.00268441 2.22094 0.828723 1.60401 0.674148 0.828723 -0.426164 0.674148 -0.219725 1.60401 0.674148 0.987084 0.370157 0.674148 -0.219725 0.370157 0 -0.426164 -0.256577 -0.219725 -0.142994 -0.256577 0.0420038 -0.142994 0.0210019 -0.219725 -0.142994 0 0 -0.142994 0.0210019 0 0 -0.16042 0 -0.120952 0 -0.216888 -0.120952 -0.00918573 -0.00459287 -0.120952 0 -0.00459287 0 0.0958019 0.0741107 0.0689029 0.0546536 0.0741107 0.0524194 0.0546536 0.0404043 0.0689029 0.0546536 0.0420038 0.0351965 0.0546536 0.0404043 0.0351965 0.0283891 0.0695834 0.0501715 0.0137382 0.00397316 0.0137382 0.00397316 0.0028698 0.000375898 0.00397316 0.00731957 0.000375898 -0.002118 0.0642681 0.086677 0.000835198 0.000445911 0.086677 0.117499 0.000445911 -0.00918807 0.000835198 0.000445911 0.00566879 0.00657179 0.000445911 -0.00918807 0.00657179 0.00747478 0.117499 0.137541 -0.00918807 -0.0200671 0.137541 0.16006 -0.0200671 -0.00658424 -0.00918807 -0.0200671 0.00747478 0.0159109 -0.0200671 -0.00658424 0.0159109 0.0243471 0.00731957 0.00859338 -0.002118 0.000318082 0.00859338 0.00820713 0.000318082 0.00275417 0.0647514 -0.00678025 0.0847479 -0.0153475 -0.00678025 -0.0115527 -0.0153475 -0.0213108 0.0847479 -0.0153475 0.113898 -0.0383883 -0.0153475 -0.0213108 -0.0383883 -0.0310688 0.113898 -0.0383883 0.105861 -0.0685648 -0.0383883 -0.0310688 -0.0685648 -0.0764302 0.105861 -0.0685648 0.0100811 -0.181201 -0.0685648 -0.0764302 -0.181201 -0.121792 0.069585 0.0137154 0.0501792 0.0038857 0.0137154 0.0028698 0.0038857 0.000185575 0.0038857 0.000185575 0.00714304 -0.00249865 0.00714304 -0.00249865 0.00832226 -0.000200276 0.00832226 -0.000200276 0.0079606 0.0020981 0.0630936 0.0771565 0.00600515 0.000157175 0.00820713 0.00600515 0.00275417 0.00286874 0.00600515 0.000157175 0.00286874 0.00298332 0.0724238 0.0695834 0.00624757 0.0137382 0.0724234 0.00624757 0.069585 0.0137154 0.00624757 0.0137382 0.0137154 0.0028698 0.0771565 0.0756256 0.000157175 -0.00280907 0.0756256 0.0717152 -0.00280907 -0.0032346 0.000157175 -0.00280907 0.00298332 0.00166869 -0.00280907 -0.0032346 0.00166869 0.000354054 -0.181201 -0.121792 -0.39889 -0.278051 -0.39889 -0.278051 -0.529782 -0.434311 0.0079606 0.0020981 0.00595784 0.00289706 0.0630815 0.00595784 0.0771132 0.000425726 0.00595784 0.00289706 0.000425726 0.00369603 4.07172 1.58408 3.76326 1.97822 3.76326 1.97822 3.45479 2.29298 1.97822 0.512491 2.29298 1.13084 -0.0720273 -0.529782 0.512491 -0.197609 -0.529782 -0.434311 -0.197609 -0.47068 0.512491 -0.197609 1.13084 0.195816 -0.197609 -0.47068 0.195816 -0.50705 4.38019 4.07172 1.25371 1.0728 0.16006 0.129383 -0.00658424 0.0305702 0.129383 0.043711 0.0305702 0.0451539 -0.00658424 0.0305702 0.0243471 0.0884578 0.0305702 0.0451539 0.0884578 0.152569 -0.125876 -0.262812 0.115622 -0.0356704 -0.262812 -0.319694 -0.0356704 -0.186962 3.45479 3.14633 1.26034 1.26199 3.14633 2.83787 1.26199 1.2213 1.26199 1.2213 -0.0809726 -0.0529282 0.0717152 0.0688442 -0.0032346 -0.00274273 0.0688442 0.066227 -0.00274273 -0.00190197 -0.0032346 -0.00274273 0.000354054 0.000959861 -0.00274273 -0.00190197 0.000959861 0.00156567 4.07172 3.76326 1.0728 1.12808 3.76326 3.45479 1.12808 1.26034 1.0728 1.12808 0.043711 0.0173712 1.12808 1.26034 0.0173712 -0.0161453 0.066227 0.0624149 -0.00190197 -0.000958989 0.0624149 0.0642681 -0.000958989 0.000835198 -0.00190197 -0.000958989 0.00156567 0.00361723 -0.000958989 0.000835198 0.00361723 0.00566879 0.0771132 0.000425726 0.0755455 -0.00214589 0.000425726 0.00369603 -0.00214589 0.00260574 0.0755455 -0.00214589 0.0716546 -0.00276619 -0.00214589 0.00260574 -0.00276619 0.00151545 0.0716546 -0.00276619 0.0689021 -0.00355969 -0.00276619 0.00151545 -0.00355969 -0.00105316 0.0689021 -0.00355969 0.0664972 -0.00464268 -0.00355969 -0.00105316 -0.00464268 -0.00362176 0.0664972 -0.00464268 0.0629001 -0.0052195 -0.00464268 -0.00362176 -0.0052195 -0.00758723 0.0629001 -0.0052195 0.0647514 -0.00678025 -0.0052195 -0.00758723 -0.00678025 -0.0115527 0.043711 0.0173712 0.0451539 -0.0278103 0.0451539 -0.0278103 0.152569 0.134095 -0.0278103 -0.125876 0.134095 0.115622 1.13084 0.195816 1.14808 0.271046 1.14808 0.271046 1.0989 0.282757 0.271046 -0.459505 0.282757 -0.478336 -0.0529282 0.316273 -0.319694 -0.129518 0.316273 0.717082 -0.129518 0.166318 -0.319694 -0.129518 -0.186962 -0.259054 -0.129518 0.166318 -0.259054 -0.331146 2.83787 2.5294 1.2213 1.33633 2.5294 2.22094 1.33633 1.46901 1.33633 1.46901 0.316273 0.717082 -0.434311 -0.296623 -0.47068 -0.354452 -0.296623 -0.158936 -0.354452 -0.238224 -0.47068 -0.354452 -0.50705 -0.412281 -0.354452 -0.238224 -0.412281 -0.317511 -0.412281 -0.317511 -0.50609 -0.309839 -0.459505 -0.50609 -0.478336 -0.41911 -0.50609 -0.309839 -0.41911 -0.302168 1.0989 0.282757 0.963814 0.227489 0.963814 0.227489 0.828723 0.176566 0.227489 -0.454933 0.176566 -0.426164 -0.331146 -0.245783 -0.274017 -0.207352 -0.245783 -0.16042 -0.207352 -0.140686 -0.274017 -0.207352 -0.216888 -0.16892 -0.207352 -0.140686 -0.16892 -0.120952 -0.41911 -0.302168 -0.396003 -0.279373 -0.454933 -0.396003 -0.426164 -0.365186 -0.396003 -0.279373 -0.365186 -0.256577 10.8579 10.7037 10.7037 8.40343 10.7037 10.5495 8.40343 6.72481 10.7037 8.40343 10.5495 6.72481 8.40343 6.72481 6.72481 3.98347 10.5495 10.3952 6.72481 5.86981 10.3952 10.241 5.86981 5.56145 6.72481 5.86981 3.98347 2.6434 5.86981 5.56145 2.6434 2.22967 10.5495 6.72481 10.3952 5.86981 6.72481 3.98347 5.86981 2.6434 10.3952 5.86981 10.241 5.56145 5.86981 2.6434 5.56145 2.22967 3.98347 2.6434 2.6434 1.08309 2.6434 2.22967 1.08309 0.625413 2.6434 1.08309 2.22967 0.625413 1.08309 0.625413 0.625413 0.132344 10.241 10.0868 5.56145 5.45408 10.0868 9.93253 5.45408 5.37491 5.56145 5.45408 2.22967 2.15799 5.45408 5.37491 2.15799 2.13131 9.93253 9.7783 5.37491 5.28908 9.7783 9.62407 5.28908 5.2022 5.37491 5.28908 2.13131 2.09442 5.28908 5.2022 2.09442 2.05329 2.05329 2.01549 0.528241 0.511969 2.01549 1.98054 0.511969 0.502323 0.528241 0.511969 0.0695834 0.0652405 0.511969 0.502323 0.0652405 0.0501715 1.98054 1.9478 0.502323 0.494034 1.9478 1.91552 0.494034 0.487047 0.502323 0.494034 0.0501715 0.0513615 0.494034 0.487047 0.0513615 0.0525515 10.241 5.56145 10.0868 5.45408 5.56145 2.22967 5.45408 2.15799 10.0868 5.45408 9.93253 5.37491 5.45408 2.15799 5.37491 2.13131 1.91552 1.883 0.487047 0.479383 1.883 1.85004 0.479383 0.470814 0.487047 0.479383 0.0525515 0.0520095 0.479383 0.470814 0.0520095 0.0514675 9.93253 5.37491 9.7783 5.28908 5.37491 2.13131 5.28908 2.09442 9.7783 5.28908 9.62407 5.2022 5.28908 2.09442 5.2022 2.05329 1.85004 1.81711 0.470814 0.461993 1.81711 1.78585 0.461993 0.455864 0.470814 0.461993 0.0514675 0.0504438 0.461993 0.455864 0.0504438 0.0494201 9.62407 9.46984 5.2022 5.11713 9.46984 9.31561 5.11713 5.03349 5.2022 5.11713 2.05329 2.01549 5.11713 5.03349 2.01549 1.98054 9.31561 9.16138 5.03349 4.95026 9.16138 9.00714 4.95026 4.86706 5.03349 4.95026 1.98054 1.9478 4.95026 4.86706 1.9478 1.91552 2.05329 0.528246 2.0155 0.51198 0.528246 0.069585 0.51198 0.0652435 2.0155 0.51198 1.98055 0.502342 0.51198 0.0652435 0.502342 0.0501792 1.98055 0.502342 1.94782 0.494062 0.502342 0.0501792 0.494062 0.0513728 1.94782 0.494062 1.91554 0.487084 0.494062 0.0513728 0.487084 0.0525665 9.00714 8.85291 4.86706 4.78377 8.85291 8.69868 4.78377 4.70039 4.86706 4.78377 1.91552 1.883 4.78377 4.70039 1.883 1.85004 8.69868 8.54445 4.70039 4.61702 8.54445 8.39021 4.61702 4.53413 4.70039 4.61702 1.85004 1.81711 4.61702 4.53413 1.81711 1.78585 1.91554 0.487084 1.88303 0.47943 0.487084 0.0525665 0.47943 0.0520291 1.88303 0.47943 1.85008 0.470868 0.47943 0.0520291 0.470868 0.0514918 1.85008 0.470868 1.81715 0.462049 0.470868 0.0514918 0.462049 0.0504654 1.81715 0.462049 1.78588 0.455912 0.462049 0.0504654 0.455912 0.049439 9.62407 5.2022 9.46984 5.11714 5.2022 2.05329 5.11714 2.0155 9.46984 5.11714 9.31561 5.03349 5.11714 2.0155 5.03349 1.98055 1.78585 1.75862 0.455864 0.455276 1.75862 1.73523 0.455276 0.459767 0.455864 0.455276 0.0494201 0.0562569 0.455276 0.459767 0.0562569 0.0630936 9.31561 5.03349 9.16138 4.95026 5.03349 1.98055 4.95026 1.94782 9.16138 4.95026 9.00714 4.86707 4.95026 1.94782 4.86707 1.91554 2.22967 2.15799 0.625413 0.562032 2.15799 2.13131 0.562032 0.565386 0.625413 0.562032 0.132344 0.102384 0.562032 0.565386 0.102384 0.0724238 9.00714 4.86707 8.85291 4.78378 4.86707 1.91554 4.78378 1.88303 8.85291 4.78378 8.69868 4.7004 4.78378 1.88303 4.7004 1.85008 2.13131 2.09442 0.565386 0.546462 2.09442 2.05329 0.546462 0.528241 0.565386 0.546462 0.0724238 0.0835865 0.546462 0.528241 0.0835865 0.0695834 8.69868 4.7004 8.54445 4.61703 4.7004 1.85008 4.61703 1.81715 8.54445 4.61703 8.39021 4.53414 4.61703 1.81715 4.53414 1.78588 2.22967 0.625413 2.15799 0.562032 0.625413 0.132344 0.562032 0.102384 2.15799 0.562032 2.13131 0.565386 0.562032 0.102384 0.565386 0.0724234 8.39021 8.23598 4.53413 4.45256 8.23598 8.08175 4.45256 4.3724 4.53413 4.45256 1.78585 1.75862 4.45256 4.3724 1.75862 1.73523 8.08175 7.92752 4.3724 4.29242 7.92752 7.77329 4.29242 4.21122 4.3724 4.29242 1.73523 1.71176 4.29242 4.21122 1.71176 1.68451 2.13131 0.565386 2.09442 0.546463 0.565386 0.0724234 0.546463 0.0835868 2.09442 0.546463 2.05329 0.528246 0.546463 0.0835868 0.528246 0.069585 1.73523 1.71176 0.459767 0.464178 1.71176 1.68451 0.464178 0.463548 0.459767 0.464178 0.0630936 0.070125 0.464178 0.463548 0.070125 0.0771565 7.77329 7.61906 4.21122 4.12849 7.61906 7.46482 4.12849 4.04491 4.21122 4.12849 1.68451 1.65318 4.12849 4.04491 1.65318 1.61979 7.46482 7.31059 4.04491 3.96121 7.31059 7.15636 3.96121 3.87763 4.04491 3.96121 1.61979 1.58607 3.96121 3.87763 1.58607 1.55258 1.68451 1.65318 0.463548 0.457464 1.65318 1.61979 0.457464 0.448269 0.463548 0.457464 0.0771565 0.076391 0.457464 0.448269 0.076391 0.0756256 1.61979 1.58607 0.448269 0.438742 1.58607 1.55258 0.438742 0.429387 0.448269 0.438742 0.0756256 0.0736704 0.438742 0.429387 0.0736704 0.0717152 7.15636 7.00213 3.87763 3.79408 7.00213 6.8479 3.79408 3.71049 3.87763 3.79408 1.55258 1.51916 3.79408 3.71049 1.51916 1.48569 6.8479 6.69366 3.71049 3.62695 6.69366 6.53943 3.62695 3.54343 3.71049 3.62695 1.48569 1.45228 3.62695 3.54343 1.45228 1.41889 1.78588 0.455912 1.75864 0.455302 0.455912 0.049439 0.455302 0.0562603 1.75864 0.455302 1.73522 0.459763 0.455302 0.0562603 0.459763 0.0630815 1.55258 1.51916 0.429387 0.42015 1.51916 1.48569 0.42015 0.410952 0.429387 0.42015 0.0717152 0.0702797 0.42015 0.410952 0.0702797 0.0688442 6.53943 6.3852 3.54343 3.45935 6.3852 6.23097 3.45935 3.37508 3.54343 3.45935 1.41889 1.3848 3.45935 3.37508 1.3848 1.35037 6.23097 6.07674 3.37508 3.29868 6.07674 5.9225 3.29868 3.24935 3.37508 3.29868 1.35037 1.32496 3.29868 3.24935 1.32496 1.32996 1.48569 1.45228 0.410952 0.401806 1.45228 1.41889 0.401806 0.392655 0.410952 0.401806 0.0688442 0.0675356 0.401806 0.392655 0.0675356 0.066227 1.41889 1.3848 0.392655 0.383022 1.3848 1.35037 0.383022 0.373161 0.392655 0.383022 0.066227 0.064321 0.383022 0.373161 0.064321 0.0624149 8.39021 4.53414 8.23598 4.45257 4.53414 1.78588 4.45257 1.75864 8.23598 4.45257 8.08175 4.3724 4.45257 1.75864 4.3724 1.73522 1.35037 1.32496 0.373161 0.367947 1.32496 1.32996 0.367947 0.379696 0.373161 0.367947 0.0624149 0.0633415 0.367947 0.379696 0.0633415 0.0642681 8.08175 4.3724 7.92752 4.29242 4.3724 1.73522 4.29242 1.71174 7.92752 4.29242 7.77329 4.2112 4.29242 1.71174 4.2112 1.68447 1.73522 0.459763 1.71174 0.464139 0.459763 0.0630815 0.464139 0.0700973 1.71174 0.464139 1.68447 0.463473 0.464139 0.0700973 0.463473 0.0771132 7.77329 4.2112 7.61906 4.12847 4.2112 1.68447 4.12847 1.65311 7.61906 4.12847 7.46482 4.04488 4.12847 1.65311 4.04488 1.61971 1.68447 0.463473 1.65311 0.457351 0.463473 0.0771132 0.457351 0.0763294 1.65311 0.457351 1.61971 0.448126 0.457351 0.0763294 0.448126 0.0755455 7.46482 4.04488 7.31059 3.96118 4.04488 1.61971 3.96118 1.58598 7.31059 3.96118 7.15636 3.87761 3.96118 1.58598 3.87761 1.55252 1.61971 0.448126 1.58598 0.438592 0.448126 0.0755455 0.438592 0.0736001 1.58598 0.438592 1.55252 0.429282 0.438592 0.0736001 0.429282 0.0716546 7.15636 3.87761 7.00213 3.79408 3.87761 1.55252 3.79408 1.51916 7.00213 3.79408 6.8479 3.71052 3.79408 1.51916 3.71052 1.48578 1.55252 0.429282 1.51916 0.420155 0.429282 0.0716546 0.420155 0.0702784 1.51916 0.420155 1.48578 0.411119 0.420155 0.0702784 0.411119 0.0689021 6.8479 3.71052 6.69366 3.627 3.71052 1.48578 3.627 1.45248 6.69366 3.627 6.53943 3.54351 3.627 1.45248 3.54351 1.41922 1.48578 0.411119 1.45248 0.402162 0.411119 0.0689021 0.402162 0.0676997 1.45248 0.402162 1.41922 0.39321 0.402162 0.0676997 0.39321 0.0664972 6.53943 3.54351 6.3852 3.45947 3.54351 1.41922 3.45947 1.38525 6.3852 3.45947 6.23097 3.37524 3.45947 1.38525 3.37524 1.35094 1.41922 0.39321 1.38525 0.383777 0.39321 0.0664972 0.383777 0.0646987 1.38525 0.383777 1.35094 0.374111 0.383777 0.0646987 0.374111 0.0629001 6.23097 3.37524 6.07674 3.29888 3.37524 1.35094 3.29888 1.32566 6.07674 3.29888 5.9225 3.24962 3.29888 1.32566 3.24962 1.3308 1.35094 0.374111 1.32566 0.3691 0.374111 0.0629001 0.3691 0.0638258 1.32566 0.3691 1.3308 0.380948 0.3691 0.0638258 0.380948 0.0647514 5.9225 5.76827 3.24935 3.23813 5.76827 5.61404 3.23813 3.24457 3.24935 3.23813 1.32996 1.37766 3.23813 3.24457 1.37766 1.44567 1.32996 1.37766 0.379696 0.41402 1.37766 1.44567 0.41402 0.461525 0.379696 0.41402 0.0642681 0.0754725 0.41402 0.461525 0.0754725 0.086677 5.30558 5.15135 3.20349 3.11858 5.15135 4.99711 3.11858 3.24813 3.20349 3.11858 1.52611 1.54573 3.11858 3.24813 1.54573 1.49915 5.61404 5.45981 3.24457 3.23358 5.45981 5.30558 3.23358 3.20349 3.24457 3.23358 1.44567 1.49916 3.23358 3.20349 1.49916 1.52611 1.44567 1.49916 0.461525 0.505347 1.49916 1.52611 0.505347 0.540817 0.461525 0.505347 0.086677 0.102088 0.505347 0.540817 0.102088 0.117499 1.49915 1.49249 0.583228 0.583941 1.49249 1.48582 0.583941 0.572622 0.583228 0.583941 0.137541 0.148801 0.583941 0.572622 0.148801 0.16006 1.3308 0.380948 1.37863 0.41527 0.380948 0.0647514 0.41527 0.0747497 1.37863 0.41527 1.44677 0.462526 0.41527 0.0747497 0.462526 0.0847479 0.0501715 0.0513615 0.0270723 0.0285039 0.0513615 0.0525515 0.0285039 0.0299355 0.0270723 0.0285039 0.00397316 0.00564636 0.0285039 0.0299355 0.00564636 0.00731957 1.52611 1.54573 0.540817 0.564456 1.54573 1.49915 0.564456 0.583228 0.540817 0.564456 0.117499 0.12752 0.564456 0.583228 0.12752 0.137541 0.0525515 0.0520095 0.0299355 0.029983 0.0520095 0.0514675 0.029983 0.0300305 0.0299355 0.029983 0.00731957 0.00795648 0.029983 0.0300305 0.00795648 0.00859338 5.9225 3.24962 5.76827 3.2385 3.24962 1.3308 3.2385 1.37863 5.76827 3.2385 5.61404 3.24511 3.2385 1.37863 3.24511 1.44677 0.0514675 0.0504438 0.0300305 0.029422 0.0504438 0.0494201 0.029422 0.0288136 0.0300305 0.029422 0.00859338 0.00840026 0.029422 0.0288136 0.00840026 0.00820713 1.25371 1.16679 0.48162 0.392794 1.16679 1.0728 0.392794 0.328558 0.48162 0.392794 0.129383 0.0865472 0.392794 0.328558 0.0865472 0.043711 5.61404 3.24511 5.45981 3.23433 3.24511 1.44677 3.23433 1.5003 5.45981 3.23433 5.30558 3.2043 3.23433 1.5003 3.2043 1.52704 1.44677 0.462526 1.5003 0.505765 0.462526 0.0847479 0.505765 0.0993227 1.5003 0.505765 1.52704 0.539482 0.505765 0.0993227 0.539482 0.113898 5.30558 3.2043 5.15135 3.11791 3.2043 1.52704 3.11791 1.54297 5.15135 3.11791 4.99711 3.24298 3.11791 1.54297 3.24298 1.48884 1.52704 0.539482 1.54297 0.559221 0.539482 0.113898 0.559221 0.109879 1.54297 0.559221 1.48884 0.560817 0.559221 0.109879 0.560817 0.105861 1.48884 0.560817 1.45398 0.522276 0.560817 0.105861 0.522276 0.0809171 1.45398 0.522276 1.41911 0.467689 0.522276 0.0809171 0.467689 0.0100811 0.0501792 0.0270324 0.0513728 0.0284436 0.0270324 0.0038857 0.0284436 0.00551437 0.0513728 0.0284436 0.0525665 0.0298548 0.0284436 0.00551437 0.0298548 0.00714304 0.0525665 0.0298548 0.0520291 0.0298809 0.0298548 0.00714304 0.0298809 0.00773265 0.0520291 0.0298809 0.0514918 0.029907 0.0298809 0.00773265 0.029907 0.00832226 0.0514918 0.029907 0.0504654 0.0293034 0.029907 0.00832226 0.0293034 0.00814143 0.0504654 0.0293034 0.049439 0.0286998 0.0293034 0.00814143 0.0286998 0.0079606 0.0494201 0.0562569 0.0288136 0.0316815 0.0562569 0.0630936 0.0316815 0.0345494 0.0288136 0.0316815 0.00820713 0.00710614 0.0316815 0.0345494 0.00710614 0.00600515 0.132344 0.102384 0.102384 0.0708596 0.102384 0.0724238 0.0708596 0.0393357 0.102384 0.0708596 0.0724234 0.0393355 0.0708596 0.0393357 0.0393355 0.00624757 0.0100811 -0.0855597 -0.0784 -0.184223 -0.0855597 -0.181201 -0.184223 -0.290045 -0.0784 -0.184223 -0.166881 -0.282885 -0.184223 -0.290045 -0.282885 -0.39889 1.48582 1.36977 0.572622 0.549654 1.36977 1.25371 0.549654 0.48162 0.572622 0.549654 0.16006 0.144722 0.549654 0.48162 0.144722 0.129383 -0.166881 -0.282885 -0.119454 -0.291895 -0.282885 -0.39889 -0.291895 -0.464336 -0.119454 -0.291895 -0.0720273 -0.300905 -0.291895 -0.464336 -0.300905 -0.529782 0.049439 0.0286998 0.0562603 0.0316097 0.0286998 0.0079606 0.0316097 0.00695922 0.0562603 0.0316097 0.0630815 0.0345197 0.0316097 0.00695922 0.0345197 0.00595784 4.99711 4.84288 3.24813 3.16768 4.84288 4.68865 3.16768 3.08724 3.24813 3.16768 1.49915 1.49249 3.1676