# vtk DataFile Version 3.0
#This file was generated by the deal.II library on 2015/5/12 at 16: 3:46
ASCII
DATASET UNSTRUCTURED_GRID

POINTS 2020 double
0 0 0
5 0 0
0 5 0
5 5 0
5 0 0
10 0 0
5 5 0
10 5 0
0 5 0
5 5 0
0 10 0
5 10 0
5 5 0
10 5 0
5 10 0
10 10 0
0 -5 0
2.5 -5 0
0 -2.5 0
2.5 -2.5 0
2.5 -5 0
5 -5 0
2.5 -2.5 0
5 -2.5 0
0 -2.5 0
2.5 -2.5 0
0 0 0
2.5 0 0
2.5 -2.5 0
5 -2.5 0
2.5 0 0
5 0 0
5 -5 0
7.5 -5 0
5 -2.5 0
7.5 -2.5 0
7.5 -5 0
10 -5 0
7.5 -2.5 0
10 -2.5 0
5 -2.5 0
7.5 -2.5 0
5 0 0
7.5 0 0
7.5 -2.5 0
10 -2.5 0
7.5 0 0
10 0 0
-5 0 0
-2.5 0 0
-5 2.5 0
-2.5 2.5 0
-2.5 0 0
0 0 0
-2.5 2.5 0
0 2.5 0
-5 2.5 0
-2.5 2.5 0
-5 5 0
-2.5 5 0
-2.5 2.5 0
0 2.5 0
-2.5 5 0
0 5 0
-10 7.5 0
-7.5 7.5 0
-10 10 0
-7.5 10 0
-7.5 7.5 0
-5 7.5 0
-7.5 10 0
-5 10 0
-5 -5 0
-2.5 -5 0
-5 -2.5 0
-2.5 -2.5 0
-2.5 -5 0
0 -5 0
-2.5 -2.5 0
0 -2.5 0
-5 -2.5 0
-2.5 -2.5 0
-5 0 0
-2.5 0 0
-2.5 -2.5 0
0 -2.5 0
-2.5 0 0
0 0 0
-5 5 0
-2.5 5 0
-5 7.5 0
-2.5 7.5 0
-2.5 5 0
0 5 0
-2.5 7.5 0
0 7.5 0
-5 7.5 0
-2.5 7.5 0
-5 10 0
-2.5 10 0
-2.5 7.5 0
0 7.5 0
-2.5 10 0
0 10 0
2.5 -7.5 0
3.75 -7.5 0
2.5 -6.25 0
3.75 -6.25 0
3.75 -7.5 0
5 -7.5 0
3.75 -6.25 0
5 -6.25 0
2.5 -6.25 0
3.75 -6.25 0
2.5 -5 0
3.75 -5 0
3.75 -6.25 0
5 -6.25 0
3.75 -5 0
5 -5 0
-7.5 -7.5 0
-6.25 -7.5 0
-7.5 -6.25 0
-6.25 -6.25 0
-6.25 -7.5 0
-5 -7.5 0
-6.25 -6.25 0
-5 -6.25 0
-7.5 -6.25 0
-6.25 -6.25 0
-7.5 -5 0
-6.25 -5 0
-6.25 -6.25 0
-5 -6.25 0
-6.25 -5 0
-5 -5 0
0 -7.5 0
1.25 -7.5 0
0 -6.25 0
1.25 -6.25 0
1.25 -7.5 0
2.5 -7.5 0
1.25 -6.25 0
2.5 -6.25 0
0 -6.25 0
1.25 -6.25 0
0 -5 0
1.25 -5 0
1.25 -6.25 0
2.5 -6.25 0
1.25 -5 0
2.5 -5 0
-7.5 0 0
-6.25 0 0
-7.5 1.25 0
-6.25 1.25 0
-6.25 0 0
-5 0 0
-6.25 1.25 0
-5 1.25 0
-7.5 1.25 0
-6.25 1.25 0
-7.5 2.5 0
-6.25 2.5 0
-6.25 1.25 0
-5 1.25 0
-6.25 2.5 0
-5 2.5 0
-5 -7.5 0
-3.75 -7.5 0
-5 -6.25 0
-3.75 -6.25 0
-3.75 -7.5 0
-2.5 -7.5 0
-3.75 -6.25 0
-2.5 -6.25 0
-5 -6.25 0
-3.75 -6.25 0
-5 -5 0
-3.75 -5 0
-3.75 -6.25 0
-2.5 -6.25 0
-3.75 -5 0
-2.5 -5 0
2.5 -8.75 0
3.75 -8.75 0
2.5 -7.5 0
3.75 -7.5 0
5 -7.5 0
6.25 -7.5 0
5 -6.25 0
6.25 -6.25 0
6.25 -7.5 0
7.5 -7.5 0
6.25 -6.25 0
7.5 -6.25 0
5 -6.25 0
6.25 -6.25 0
5 -5 0
6.25 -5 0
6.25 -6.25 0
7.5 -6.25 0
6.25 -5 0
7.5 -5 0
-7.5 2.5 0
-6.25 2.5 0
-7.5 3.75 0
-6.25 3.75 0
-6.25 2.5 0
-5 2.5 0
-6.25 3.75 0
-5 3.75 0
-7.5 3.75 0
-6.25 3.75 0
-7.5 5 0
-6.25 5 0
-6.25 3.75 0
-5 3.75 0
-6.25 5 0
-5 5 0
-7.5 -5 0
-6.25 -5 0
-7.5 -3.75 0
-6.25 -3.75 0
-6.25 -5 0
-5 -5 0
-6.25 -3.75 0
-5 -3.75 0
-7.5 -3.75 0
-6.25 -3.75 0
-7.5 -2.5 0
-6.25 -2.5 0
-6.25 -3.75 0
-5 -3.75 0
-6.25 -2.5 0
-5 -2.5 0
-10 5 0
-8.75 5 0
-10 6.25 0
-8.75 6.25 0
-10 6.25 0
-8.75 6.25 0
-10 7.5 0
-8.75 7.5 0
-8.75 6.25 0
-7.5 6.25 0
-8.75 7.5 0
-7.5 7.5 0
7.5 -10 0
8.75 -10 0
7.5 -8.75 0
8.75 -8.75 0
8.75 -10 0
10 -10 0
8.75 -8.75 0
10 -8.75 0
7.5 -8.75 0
8.75 -8.75 0
7.5 -7.5 0
8.75 -7.5 0
8.75 -8.75 0
10 -8.75 0
8.75 -7.5 0
10 -7.5 0
-6.25 5 0
-5 5 0
-6.25 6.25 0
-5 6.25 0
-7.5 6.25 0
-6.25 6.25 0
-7.5 7.5 0
-6.25 7.5 0
-6.25 6.25 0
-5 6.25 0
-6.25 7.5 0
-5 7.5 0
-2.5 -7.5 0
-1.25 -7.5 0
-2.5 -6.25 0
-1.25 -6.25 0
-1.25 -7.5 0
0 -7.5 0
-1.25 -6.25 0
0 -6.25 0
-2.5 -6.25 0
-1.25 -6.25 0
-2.5 -5 0
-1.25 -5 0
-1.25 -6.25 0
0 -6.25 0
-1.25 -5 0
0 -5 0
-7.5 -2.5 0
-6.25 -2.5 0
-7.5 -1.25 0
-6.25 -1.25 0
-6.25 -2.5 0
-5 -2.5 0
-6.25 -1.25 0
-5 -1.25 0
-7.5 -1.25 0
-6.25 -1.25 0
-7.5 0 0
-6.25 0 0
-6.25 -1.25 0
-5 -1.25 0
-6.25 0 0
-5 0 0
7.5 -7.5 0
8.75 -7.5 0
7.5 -6.25 0
8.75 -6.25 0
8.75 -7.5 0
10 -7.5 0
8.75 -6.25 0
10 -6.25 0
7.5 -6.25 0
8.75 -6.25 0
7.5 -5 0
8.75 -5 0
8.75 -6.25 0
10 -6.25 0
8.75 -5 0
10 -5 0
-7.5 -8.75 0
-6.875 -8.75 0
-7.5 -8.125 0
-6.875 -8.125 0
-6.875 -8.75 0
-6.25 -8.75 0
-6.875 -8.125 0
-6.25 -8.125 0
-7.5 -8.125 0
-6.875 -8.125 0
-7.5 -7.5 0
-6.875 -7.5 0
-6.875 -8.125 0
-6.25 -8.125 0
-6.875 -7.5 0
-6.25 -7.5 0
0 -8.75 0
0.625 -8.75 0
0 -8.125 0
0.625 -8.125 0
0.625 -8.75 0
1.25 -8.75 0
0.625 -8.125 0
1.25 -8.125 0
0 -8.125 0
0.625 -8.125 0
0 -7.5 0
0.625 -7.5 0
0.625 -8.125 0
1.25 -8.125 0
0.625 -7.5 0
1.25 -7.5 0
1.25 -8.75 0
1.875 -8.75 0
1.25 -8.125 0
1.875 -8.125 0
1.875 -8.75 0
2.5 -8.75 0
1.875 -8.125 0
2.5 -8.125 0
1.25 -8.125 0
1.875 -8.125 0
1.25 -7.5 0
1.875 -7.5 0
1.875 -8.125 0
2.5 -8.125 0
1.875 -7.5 0
2.5 -7.5 0
-6.25 -8.75 0
-5.625 -8.75 0
-6.25 -8.125 0
-5.625 -8.125 0
-5.625 -8.75 0
-5 -8.75 0
-5.625 -8.125 0
-5 -8.125 0
-6.25 -8.125 0
-5.625 -8.125 0
-6.25 -7.5 0
-5.625 -7.5 0
-5.625 -8.125 0
-5 -8.125 0
-5.625 -7.5 0
-5 -7.5 0
-8.75 0 0
-8.125 0 0
-8.75 0.625 0
-8.125 0.625 0
-8.125 0 0
-7.5 0 0
-8.125 0.625 0
-7.5 0.625 0
-8.75 0.625 0
-8.125 0.625 0
-8.75 1.25 0
-8.125 1.25 0
-8.125 0.625 0
-7.5 0.625 0
-8.125 1.25 0
-7.5 1.25 0
-8.75 1.25 0
-8.125 1.25 0
-8.75 1.875 0
-8.125 1.875 0
-8.125 1.25 0
-7.5 1.25 0
-8.125 1.875 0
-7.5 1.875 0
-8.75 1.875 0
-8.125 1.875 0
-8.75 2.5 0
-8.125 2.5 0
-8.125 1.875 0
-7.5 1.875 0
-8.125 2.5 0
-7.5 2.5 0
-8.75 -7.5 0
-8.125 -7.5 0
-8.75 -6.875 0
-8.125 -6.875 0
-8.125 -7.5 0
-7.5 -7.5 0
-8.125 -6.875 0
-7.5 -6.875 0
-8.75 -6.875 0
-8.125 -6.875 0
-8.75 -6.25 0
-8.125 -6.25 0
-8.125 -6.875 0
-7.5 -6.875 0
-8.125 -6.25 0
-7.5 -6.25 0
-8.75 -6.25 0
-8.125 -6.25 0
-8.75 -5.625 0
-8.125 -5.625 0
-8.125 -6.25 0
-7.5 -6.25 0
-8.125 -5.625 0
-7.5 -5.625 0
-8.75 -5.625 0
-8.125 -5.625 0
-8.75 -5 0
-8.125 -5 0
-8.125 -5.625 0
-7.5 -5.625 0
-8.125 -5 0
-7.5 -5 0
-5 -8.75 0
-4.375 -8.75 0
-5 -8.125 0
-4.375 -8.125 0
-4.375 -8.75 0
-3.75 -8.75 0
-4.375 -8.125 0
-3.75 -8.125 0
-5 -8.125 0
-4.375 -8.125 0
-5 -7.5 0
-4.375 -7.5 0
-4.375 -8.125 0
-3.75 -8.125 0
-4.375 -7.5 0
-3.75 -7.5 0
-8.75 -8.75 0
-8.125 -8.75 0
-8.75 -8.125 0
-8.125 -8.125 0
-8.125 -8.75 0
-7.5 -8.75 0
-8.125 -8.125 0
-7.5 -8.125 0
-8.75 -8.125 0
-8.125 -8.125 0
-8.75 -7.5 0
-8.125 -7.5 0
-8.125 -8.125 0
-7.5 -8.125 0
-8.125 -7.5 0
-7.5 -7.5 0
-3.75 -8.75 0
-3.125 -8.75 0
-3.75 -8.125 0
-3.125 -8.125 0
-3.125 -8.75 0
-2.5 -8.75 0
-3.125 -8.125 0
-2.5 -8.125 0
-3.75 -8.125 0
-3.125 -8.125 0
-3.75 -7.5 0
-3.125 -7.5 0
-3.125 -8.125 0
-2.5 -8.125 0
-3.125 -7.5 0
-2.5 -7.5 0
-8.75 2.5 0
-8.125 2.5 0
-8.75 3.125 0
-8.125 3.125 0
-8.125 2.5 0
-7.5 2.5 0
-8.125 3.125 0
-7.5 3.125 0
-8.75 3.125 0
-8.125 3.125 0
-8.75 3.75 0
-8.125 3.75 0
-8.125 3.125 0
-7.5 3.125 0
-8.125 3.75 0
-7.5 3.75 0
-8.75 -5 0
-8.125 -5 0
-8.75 -4.375 0
-8.125 -4.375 0
-8.125 -5 0
-7.5 -5 0
-8.125 -4.375 0
-7.5 -4.375 0
-8.75 -4.375 0
-8.125 -4.375 0
-8.75 -3.75 0
-8.125 -3.75 0
-8.125 -4.375 0
-7.5 -4.375 0
-8.125 -3.75 0
-7.5 -3.75 0
0.625 -10 0
1.25 -10 0
0.625 -9.375 0
1.25 -9.375 0
0.625 -9.375 0
1.25 -9.375 0
0.625 -8.75 0
1.25 -8.75 0
1.875 -9.375 0
2.5 -9.375 0
1.875 -8.75 0
2.5 -8.75 0
-10 3.75 0
-9.375 3.75 0
-10 4.375 0
-9.375 4.375 0
-9.375 3.75 0
-8.75 3.75 0
-9.375 4.375 0
-8.75 4.375 0
-10 4.375 0
-9.375 4.375 0
-10 5 0
-9.375 5 0
-9.375 4.375 0
-8.75 4.375 0
-9.375 5 0
-8.75 5 0
-8.125 3.75 0
-7.5 3.75 0
-8.125 4.375 0
-7.5 4.375 0
-8.75 4.375 0
-8.125 4.375 0
-8.75 5 0
-8.125 5 0
-8.125 4.375 0
-7.5 4.375 0
-8.125 5 0
-7.5 5 0
2.5 -10 0
3.125 -10 0
2.5 -9.375 0
3.125 -9.375 0
3.125 -10 0
3.75 -10 0
3.125 -9.375 0
3.75 -9.375 0
2.5 -9.375 0
3.125 -9.375 0
2.5 -8.75 0
3.125 -8.75 0
3.125 -9.375 0
3.75 -9.375 0
3.125 -8.75 0
3.75 -8.75 0
6.25 -10 0
6.875 -10 0
6.25 -9.375 0
6.875 -9.375 0
6.875 -10 0
7.5 -10 0
6.875 -9.375 0
7.5 -9.375 0
6.25 -9.375 0
6.875 -9.375 0
6.25 -8.75 0
6.875 -8.75 0
6.875 -9.375 0
7.5 -9.375 0
6.875 -8.75 0
7.5 -8.75 0
-10 0.625 0
-9.375 0.625 0
-10 1.25 0
-9.375 1.25 0
-9.375 0.625 0
-8.75 0.625 0
-9.375 1.25 0
-8.75 1.25 0
5 -8.75 0
5.625 -8.75 0
5 -8.125 0
5.625 -8.125 0
5.625 -8.75 0
6.25 -8.75 0
5.625 -8.125 0
6.25 -8.125 0
5 -8.125 0
5.625 -8.125 0
5 -7.5 0
5.625 -7.5 0
5.625 -8.125 0
6.25 -8.125 0
5.625 -7.5 0
6.25 -7.5 0
-9.375 1.875 0
-8.75 1.875 0
-9.375 2.5 0
-8.75 2.5 0
5 -10 0
5.625 -10 0
5 -9.375 0
5.625 -9.375 0
5.625 -10 0
6.25 -10 0
5.625 -9.375 0
6.25 -9.375 0
5 -9.375 0
5.625 -9.375 0
5 -8.75 0
5.625 -8.75 0
-10 2.5 0
-9.375 2.5 0
-10 3.125 0
-9.375 3.125 0
-9.375 2.5 0
-8.75 2.5 0
-9.375 3.125 0
-8.75 3.125 0
-10 3.125 0
-9.375 3.125 0
-10 3.75 0
-9.375 3.75 0
-9.375 3.125 0
-8.75 3.125 0
-9.375 3.75 0
-8.75 3.75 0
-2.5 -8.75 0
-1.875 -8.75 0
-2.5 -8.125 0
-1.875 -8.125 0
-1.875 -8.75 0
-1.25 -8.75 0
-1.875 -8.125 0
-1.25 -8.125 0
-2.5 -8.125 0
-1.875 -8.125 0
-2.5 -7.5 0
-1.875 -7.5 0
-1.875 -8.125 0
-1.25 -8.125 0
-1.875 -7.5 0
-1.25 -7.5 0
-1.25 -8.75 0
-0.625 -8.75 0
-1.25 -8.125 0
-0.625 -8.125 0
-0.625 -8.75 0
0 -8.75 0
-0.625 -8.125 0
0 -8.125 0
-1.25 -8.125 0
-0.625 -8.125 0
-1.25 -7.5 0
-0.625 -7.5 0
-0.625 -8.125 0
0 -8.125 0
-0.625 -7.5 0
0 -7.5 0
-8.75 -3.75 0
-8.125 -3.75 0
-8.75 -3.125 0
-8.125 -3.125 0
-8.125 -3.75 0
-7.5 -3.75 0
-8.125 -3.125 0
-7.5 -3.125 0
-8.75 -3.125 0
-8.125 -3.125 0
-8.75 -2.5 0
-8.125 -2.5 0
-8.125 -3.125 0
-7.5 -3.125 0
-8.125 -2.5 0
-7.5 -2.5 0
-8.75 -2.5 0
-8.125 -2.5 0
-8.75 -1.875 0
-8.125 -1.875 0
-8.125 -2.5 0
-7.5 -2.5 0
-8.125 -1.875 0
-7.5 -1.875 0
-8.75 -1.875 0
-8.125 -1.875 0
-8.75 -1.25 0
-8.125 -1.25 0
-8.125 -1.875 0
-7.5 -1.875 0
-8.125 -1.25 0
-7.5 -1.25 0
-8.75 -1.25 0
-8.125 -1.25 0
-8.75 -0.625 0
-8.125 -0.625 0
-8.125 -1.25 0
-7.5 -1.25 0
-8.125 -0.625 0
-7.5 -0.625 0
-8.75 -0.625 0
-8.125 -0.625 0
-8.75 0 0
-8.125 0 0
-8.125 -0.625 0
-7.5 -0.625 0
-8.125 0 0
-7.5 0 0
3.75 -8.75 0
4.375 -8.75 0
3.75 -8.125 0
4.375 -8.125 0
4.375 -8.75 0
5 -8.75 0
4.375 -8.125 0
5 -8.125 0
3.75 -8.125 0
4.375 -8.125 0
3.75 -7.5 0
4.375 -7.5 0
4.375 -8.125 0
5 -8.125 0
4.375 -7.5 0
5 -7.5 0
-8.75 5 0
-8.125 5 0
-8.75 5.625 0
-8.125 5.625 0
-8.125 5 0
-7.5 5 0
-8.125 5.625 0
-7.5 5.625 0
-8.75 5.625 0
-8.125 5.625 0
-8.75 6.25 0
-8.125 6.25 0
-8.125 5.625 0
-7.5 5.625 0
-8.125 6.25 0
-7.5 6.25 0
6.25 -8.75 0
6.875 -8.75 0
6.25 -8.125 0
6.875 -8.125 0
6.875 -8.75 0
7.5 -8.75 0
6.875 -8.125 0
7.5 -8.125 0
6.25 -8.125 0
6.875 -8.125 0
6.25 -7.5 0
6.875 -7.5 0
6.875 -8.125 0
7.5 -8.125 0
6.875 -7.5 0
7.5 -7.5 0
-7.5 5 0
-6.875 5 0
-7.5 5.625 0
-6.875 5.625 0
-6.875 5 0
-6.25 5 0
-6.875 5.625 0
-6.25 5.625 0
[...]
POINT_DATA 2020
SCALARS V double 1
LOOKUP_TABLE default
0.016709 -0.00794572 -0.0257567 0.00724488 -0.00794572 0 0.00724488 0 -0.0257567 0.00724488 0 0 0.00724488 0 0 0 0.000669955 0.00924649 0.00955831 0.00755083 0.00924649 0.0229236 0.00755083 0.00614505 0.00955831 0.00755083 0.016709 0.00438166 0.00755083 0.00614505 0.00438166 -0.00794572 0.0229236 0.000309695 0.00614505 0.0058395 0.000309695 0 0.0058395 0 0.00614505 0.0058395 -0.00794572 -0.00397286 0.0058395 0 -0.00397286 0 -0.00422043 0.00692346 0.0598755 0.0296117 0.00692346 0.016709 0.0296117 -0.00452382 0.0598755 0.0296117 0.119242 0.048531 0.0296117 -0.00452382 0.048531 -0.0257567 2.23654 -0.586722 0.994018 0 -0.586722 0.0594835 0 0 0.00778168 0.00297588 0.000349874 0.00612032 0.00297588 0.000669955 0.00612032 0.00955831 0.000349874 0.00612032 -0.00422043 0.00692346 0.00612032 0.00955831 0.00692346 0.016709 0.119242 0.048531 0.0594835 0.0244295 0.048531 -0.0257567 0.0244295 -0.0128783 0.0594835 0.0244295 0 0 0.0244295 -0.0128783 0 0 0.0178051 0.181295 0.0135746 0.0790625 0.181295 0.201096 0.0790625 0.147681 0.0135746 0.0790625 0.00924649 0.0160851 0.0790625 0.147681 0.0160851 0.0229236 -0.000974856 -0.0113006 -0.0117554 -0.00471898 -0.0113006 -0.00512272 -0.00471898 0.00115203 -0.0117554 -0.00471898 -0.00597868 0.000666729 -0.00471898 0.00115203 0.000666729 0.00778168 0.00304674 0.00264337 0.00185835 0.00425249 0.00264337 0.0178051 0.00425249 0.0135746 0.00185835 0.00425249 0.000669955 0.00495822 0.00425249 0.0135746 0.00495822 0.00924649 -0.0130283 -0.00862436 -0.0508888 -0.0140425 -0.00862436 -0.00422043 -0.0140425 0.0278275 -0.0508888 -0.0140425 -0.0963249 -0.0186262 -0.0140425 0.0278275 -0.0186262 0.0598755 -0.00512272 0.00145239 0.00115203 -0.00262678 0.00145239 -0.00107414 -0.00262678 0.000950871 0.00115203 -0.00262678 0.00778168 0.00537878 -0.00262678 0.000950871 0.00537878 0.00297588 -0.00127495 -0.00888257 0.0178051 0.181295 0.201096 -0.164214 0.147681 -0.0441368 -0.164214 -0.46663 -0.0441368 -0.23316 0.147681 -0.0441368 0.0229236 0.0116167 -0.0441368 -0.23316 0.0116167 0.000309695 -0.0963249 -0.0186262 -0.422129 -0.165739 -0.0186262 0.0598755 -0.165739 0.0895586 -0.422129 -0.165739 -0.717724 -0.319057 -0.165739 0.0895586 -0.319057 0.119242 -0.00597868 0.000666729 0.00217801 -0.00281324 0.000666729 0.00778168 -0.00281324 0.00406578 0.00217801 -0.00281324 0.00131858 0.000834225 -0.00281324 0.00406578 0.000834225 0.000349874 3.47906 1.32333 2.8578 1.09702 2.8578 1.09702 2.23654 0.801932 1.09702 -0.658542 0.801932 -0.586722 2.23654 1.61528 0.811762 0.721878 1.61528 0.994018 0.721878 0.372757 0.811762 0.721878 -0.46663 -0.233315 0.721878 0.372757 -0.233315 0 -0.319057 0.119242 -0.299639 0.0893626 -0.658542 -0.299639 -0.586722 -0.276223 -0.299639 0.0893626 -0.276223 0.0594835 -0.00107414 0.000986297 0.000950871 0.00140461 0.000986297 0.00304674 0.00140461 0.00185835 0.000950871 0.00140461 0.00297588 0.00182292 0.00140461 0.00185835 0.00182292 0.000669955 0.00131858 0.000834225 -0.00585486 -0.00389507 0.000834225 0.000349874 -0.00389507 -0.00193528 -0.00585486 -0.00389507 -0.0130283 -0.00862436 -0.00389507 -0.00193528 -0.00862436 -0.00422043 -0.46663 -0.233315 -0.23316 -0.11658 -0.233315 0 -0.11658 0 -0.23316 -0.11658 0.000309695 0.000154848 -0.11658 0 0.000154848 0 0.0232004 0.0225606 0.0105804 0.0186882 0.0225606 0.0334571 0.0186882 0.0255973 0.0105804 0.0186882 -0.000974856 -0.00613774 0.0186882 0.0255973 -0.00613774 -0.0113006 0.00784363 -0.0430757 0.00544518 0.0389943 -0.0430757 -0.0390175 0.0389943 0.028849 0.00544518 0.0389943 0.00304674 0.00284505 0.0389943 0.028849 0.00284505 0.00264337 -0.0390175 -0.0651858 0.028849 0.00922974 -0.0651858 -0.00127495 0.00922974 -0.018561 0.028849 0.00922974 0.00264337 0.0102242 0.00922974 -0.018561 0.0102242 0.0178051 0.0334571 0.0272199 0.0255973 0.0258978 0.0272199 0.036051 0.0258978 0.0202529 0.0255973 0.0258978 -0.0113006 -0.00821167 0.0258978 0.0202529 -0.00821167 -0.00512272 0.011394 -0.000817136 -0.0388867 0.0243277 -0.000817136 -0.0130283 0.0243277 -0.0319585 -0.0388867 0.0243277 -0.0382288 -0.000363236 0.0243277 -0.0319585 -0.000363236 -0.0508888 -0.0382288 -0.000363236 -0.0755374 -0.0337449 -0.000363236 -0.0508888 -0.0337449 -0.0736068 -0.0755374 -0.0337449 -0.10674 -0.134246 -0.0337449 -0.0736068 -0.134246 -0.0963249 0.023203 0.0105747 0.0226031 0.0186039 0.0105747 -0.000974856 0.0186039 -0.00636515 0.0226031 0.0186039 0.0335418 0.0254282 0.0186039 -0.00636515 0.0254282 -0.0117554 0.0335418 0.0254282 0.0273552 0.0256268 0.0254282 -0.0117554 0.0256268 -0.00886706 0.0273552 0.0256268 0.036207 0.0199479 0.0256268 -0.00886706 0.0199479 -0.00597868 0.036051 -0.0151843 0.0202529 0.035204 -0.0151843 0.00934154 0.035204 0.00539697 0.0202529 0.035204 -0.00512272 -0.00183516 0.035204 0.00539697 -0.00183516 0.00145239 0.063907 0.0443041 0.0443039 0.0180294 0.0443041 0.0232004 0.0180294 0.0105804 0.0443039 0.0180294 0.023203 0.0105747 0.0180294 0.0105804 0.0105747 -0.000974856 0.00934154 0.00838077 0.00539697 0.00428495 0.00838077 0.00742 0.00428495 0.00317293 0.00539697 0.00428495 0.00145239 0.000189126 0.00428495 0.00317293 0.000189126 -0.00107414 -0.10674 -0.134246 -0.558478 -0.443503 -0.134246 -0.0963249 -0.443503 -0.259227 -0.558478 -0.443503 -0.868426 -0.730911 -0.443503 -0.259227 -0.730911 -0.422129 0.036207 0.0199479 -0.0151926 0.0351547 0.0199479 -0.00597868 0.0351547 -0.00190033 -0.0151926 0.0351547 0.00916795 0.00567298 0.0351547 -0.00190033 0.00567298 0.00217801 5.65348 5.34285 0.422962 0.49398 0.422962 0.49398 -0.0430757 -0.0390175 0.689831 0.647152 -0.0651858 -0.00127495 4.10032 1.45226 3.78969 1.97831 1.45226 -0.868426 1.97831 0.211407 3.78969 1.97831 3.47906 2.4012 1.97831 0.211407 2.4012 1.32333 -0.730911 -0.422129 -0.240502 -0.569926 0.211407 -0.240502 1.32333 0.302802 -0.240502 -0.569926 0.302802 -0.717724 4.72159 4.41095 0.647152 0.44218 4.41095 4.10032 0.44218 0.0759892 0.647152 0.44218 -0.00127495 0.0195414 0.44218 0.0759892 0.0195414 -0.00888257 2.8578 2.54717 1.064 1.29393 2.54717 2.23654 1.29393 1.52415 1.064 1.29393 -0.646638 0.0825619 1.29393 1.52415 0.0825619 0.811762 5.65348 0.423671 5.34285 0.495666 0.423671 -0.0388867 0.495666 -0.0382288 -0.446592 -0.523765 -0.122748 -0.329869 -0.523765 -0.646638 -0.329869 -0.405426 -0.122748 -0.329869 0.201096 0.0184408 -0.329869 -0.405426 0.0184408 -0.164214 0.692371 -0.0755374 0.603037 -0.10674 3.47906 3.16843 1.28554 1.22629 3.16843 2.8578 1.22629 1.064 1.28554 1.22629 -0.446592 -0.523765 4.72159 0.603037 4.41095 0.32889 0.603037 -0.10674 0.32889 -0.558478 4.41095 0.32889 4.10032 1.45226 0.32889 -0.558478 1.45226 -0.868426 0.00742 0.00746033 0.00317293 0.0037082 0.00746033 0.00750065 0.0037082 0.00424347 0.00317293 0.0037082 -0.00107414 -4.39219e-05 0.0037082 0.00424347 -4.39219e-05 0.000986297 0.00750065 0.00767214 0.00424347 0.00484433 0.00767214 0.00784363 0.00484433 0.00544518 0.00424347 0.00484433 0.000986297 0.00201652 0.00484433 0.00544518 0.00201652 0.00304674 0.00916795 0.00567298 0.00801958 0.00488394 0.00567298 0.00217801 0.00488394 0.0017483 0.00801958 0.00488394 0.0068712 0.00409489 0.00488394 0.0017483 0.00409489 0.00131858 0.0068712 0.00409489 0.00793392 0.00283289 0.00409489 0.00131858 0.00283289 -0.00226814 0.00793392 0.00283289 0.00899665 0.0015709 0.00283289 -0.00226814 0.0015709 -0.00585486 0.00899665 0.0015709 0.0101953 0.00037688 0.0015709 -0.00585486 0.00037688 -0.00944157 0.0101953 0.00037688 0.011394 -0.000817136 0.00037688 -0.00944157 -0.000817136 -0.0130283 -0.00888257 -0.227737 0.0862063 -0.018271 -0.227737 -0.446592 -0.018271 -0.122748 0.0862063 -0.018271 0.181295 0.191195 -0.018271 -0.122748 0.191195 0.201096 1.32333 0.302802 1.21017 0.26102 0.302802 -0.717724 0.26102 -0.688133 1.21017 0.26102 1.09702 0.219239 0.26102 -0.688133 0.219239 -0.658542 -0.646638 0.0825619 -0.405426 -0.11643 0.0825619 0.811762 -0.11643 0.172566 -0.405426 -0.11643 -0.164214 -0.315422 -0.11643 0.172566 -0.315422 -0.46663 -0.717724 -0.51839 -0.688133 -0.49874 -0.51839 -0.319057 -0.49874 -0.309348 -0.688133 -0.49874 -0.658542 -0.47909 -0.49874 -0.309348 -0.47909 -0.299639 10.9342 10.7789 10.7789 6.2622 10.7789 10.6236 6.2622 4.03287 10.7789 6.2622 10.6236 4.03287 6.2622 4.03287 4.03287 0.829051 10.6236 10.4683 4.03287 3.64488 10.4683 10.3129 3.64488 3.66231 4.03287 3.64488 0.829051 0.313585 3.64488 3.66231 0.313585 0.433625 10.6236 4.03287 10.4683 3.64488 4.03287 0.829051 3.64488 0.313585 10.4683 3.64488 10.3129 3.66231 3.64488 0.313585 3.66231 0.433625 0.829051 0.313585 0.313585 -0.194662 0.313585 0.433625 -0.194662 -0.0139639 0.313585 -0.194662 0.433625 -0.0139638 -0.194662 -0.0139639 -0.0139638 0.063907 10.3129 10.1576 3.66231 3.61578 10.1576 10.0023 3.61578 3.54721 3.66231 3.61578 0.433625 0.440285 3.61578 3.54721 0.440285 0.417265 10.0023 9.84699 3.54721 3.48889 9.84699 9.69168 3.48889 3.43401 3.54721 3.48889 0.417265 0.393985 3.48889 3.43401 0.393985 0.382944 0.382944 0.389273 -0.0295337 -0.0768893 0.389273 0.387927 -0.0768893 -0.0805903 -0.0295337 -0.0768893 0.0232004 0.0228805 -0.0768893 -0.0805903 0.0228805 0.0225606 0.387927 0.379 -0.0805903 -0.0724719 0.379 0.373737 -0.0724719 -0.0712853 -0.0805903 -0.0724719 0.0225606 0.0280089 -0.0724719 -0.0712853 0.0280089 0.0334571 10.3129 3.66231 10.1576 3.61578 3.66231 0.433625 3.61578 0.440285 10.1576 3.61578 10.0023 3.54721 3.61578 0.440285 3.54721 0.417265 0.373737 0.367128 -0.0712853 -0.0692448 0.367128 0.360538 -0.0692448 -0.0683198 -0.0712853 -0.0692448 0.0334571 0.0303385 -0.0692448 -0.0683198 0.0303385 0.0272199 10.0023 3.54721 9.84699 3.48889 3.54721 0.417265 3.48889 0.393986 9.84699 3.48889 9.69168 3.43401 3.48889 0.393986 3.43401 0.382946 0.360538 0.354722 -0.0683198 -0.0699604 0.354722 0.345585 -0.0699604 -0.064063 -0.0683198 -0.0699604 0.0272199 0.0316355 -0.0699604 -0.064063 0.0316355 0.036051 9.69168 9.53636 3.43401 3.38694 9.53636 9.38104 3.38694 3.33051 3.43401 3.38694 0.382944 0.389273 3.38694 3.33051 0.389273 0.387927 9.38104 9.22573 3.33051 3.275 9.22573 9.07041 3.275 3.21954 3.33051 3.275 0.387927 0.379 3.275 3.21954 0.379 0.373737 0.382946 -0.0295306 0.389275 -0.0768744 -0.0295306 0.023203 -0.0768744 0.022903 0.389275 -0.0768744 0.38793 -0.0805599 -0.0768744 0.022903 -0.0805599 0.0226031 0.38793 -0.0805599 0.379005 -0.0724268 -0.0805599 0.0226031 -0.0724268 0.0280725 0.379005 -0.0724268 0.373745 -0.071225 -0.0724268 0.0280725 -0.071225 0.0335418 9.07041 8.9151 3.21954 3.16446 8.9151 8.75978 3.16446 3.10948 3.21954 3.16446 0.373737 0.367128 3.16446 3.10948 0.367128 0.360538 8.75978 8.60447 3.10948 3.05429 8.60447 8.44915 3.05429 2.99989 3.10948 3.05429 0.360538 0.354722 3.05429 2.99989 0.354722 0.345585 0.373745 -0.071225 0.367137 -0.0691691 -0.071225 0.0335418 -0.0691691 0.0304485 0.367137 -0.0691691 0.36055 -0.0682289 -0.0691691 0.0304485 -0.0682289 0.0273552 0.36055 -0.0682289 0.354735 -0.0698534 -0.0682289 0.0273552 -0.0698534 0.0317811 0.354735 -0.0698534 0.345596 -0.0639614 -0.0698534 0.0317811 -0.0639614 0.036207 9.69168 3.43401 9.53636 3.38694 3.43401 0.382946 3.38694 0.389275 9.53636 3.38694 9.38104 3.33051 3.38694 0.389275 3.33051 0.38793 0.345585 0.353333 -0.064063 -0.0961892 0.353333 0.271019 -0.0961892 0.127917 -0.064063 -0.0961892 0.036051 0.0104334 -0.0961892 0.127917 0.0104334 -0.0151843 9.38104 3.33051 9.22573 3.275 3.33051 0.38793 3.275 0.379005 9.22573 3.275 9.07041 3.21954 3.275 0.379005 3.21954 0.373745 0.433625 0.440285 -0.0139639 0.0305956 0.440285 0.417265 0.0305956 0.0106141 -0.0139639 0.0305956 0.063907 0.0541055 0.0305956 0.0106141 0.0541055 0.0443041 9.07041 3.21954 8.9151 3.16445 3.21954 0.373745 3.16445 0.367137 8.9151 3.16445 8.75978 3.10947 3.16445 0.367137 3.10947 0.36055 0.417265 0.393985 0.0106141 0.000666096 0.393985 0.382944 0.000666096 -0.0295337 0.0106141 0.000666096 0.0443041 0.0337522 0.000666096 -0.0295337 0.0337522 0.0232004 8.75978 3.10947 8.60447 3.05427 3.10947 0.36055 3.05427 0.354735 8.60447 3.05427 8.44915 2.99988 3.05427 0.354735 2.99988 0.345596 0.433625 -0.0139638 0.440285 0.0305956 -0.0139638 0.063907 0.0305956 0.0541054 0.440285 0.0305956 0.417265 0.0106143 0.0305956 0.0541054 0.0106143 0.0443039 8.44915 8.29384 2.99989 2.94176 8.29384 8.13852 2.94176 2.89931 2.99989 2.94176 0.345585 0.353333 2.94176 2.89931 0.353333 0.271019 8.13852 7.98321 2.89931 2.84152 7.98321 7.82789 2.84152 2.7845 2.89931 2.84152 0.271019 0.277244 2.84152 2.7845 0.277244 0.28347 0.417265 0.0106143 0.393986 0.000666005 0.0106143 0.0443039 0.000666005 0.0337534 0.393986 0.000666005 0.382946 -0.0295306 0.000666005 0.0337534 -0.0295306 0.023203 0.271019 0.277244 0.127917 0.137161 0.277244 0.28347 0.137161 0.146406 0.127917 0.137161 -0.0151843 -0.00292137 0.137161 0.146406 -0.00292137 0.00934154 7.82789 7.67258 2.7845 2.72983 7.67258 7.51726 2.72983 2.67511 2.7845 2.72983 0.28347 0.274466 2.72983 2.67511 0.274466 0.265463 7.51726 7.36195 2.67511 2.61965 7.36195 7.20663 2.61965 2.56424 2.67511 2.61965 0.265463 0.260912 2.61965 2.56424 0.260912 0.256361 0.28347 0.274466 0.146406 0.141664 0.274466 0.265463 0.141664 0.136922 0.146406 0.141664 0.00934154 0.00886116 0.141664 0.136922 0.00886116 0.00838077 0.265463 0.260912 0.136922 0.134406 0.260912 0.256361 0.134406 0.13189 0.136922 0.134406 0.00838077 0.00790039 0.134406 0.13189 0.00790039 0.00742 7.20663 7.05131 2.56424 2.50909 7.05131 6.896 2.50909 2.45385 2.56424 2.50909 0.256361 0.250527 2.50909 2.45385 0.250527 0.244694 6.896 6.74068 2.45385 2.39845 6.74068 6.58537 2.39845 2.34317 2.45385 2.39845 0.244694 0.239066 2.39845 2.34317 0.239066 0.233438 0.345596 -0.0639614 0.353338 -0.096129 -0.0639614 0.036207 -0.096129 0.0105072 0.353338 -0.096129 0.27102 0.127913 -0.096129 0.0105072 0.127913 -0.0151926 0.256361 0.250527 0.13189 0.128984 0.250527 0.244694 0.128984 0.126077 0.13189 0.128984 0.00742 0.00744016 0.128984 0.126077 0.00744016 0.00746033 6.58537 6.43005 2.34317 2.2887 6.43005 6.27474 2.2887 2.23411 2.34317 2.2887 0.233438 0.228726 2.2887 2.23411 0.228726 0.224013 6.27474 6.11942 2.23411 2.1732 6.11942 5.96411 2.1732 2.10303 2.23411 2.1732 0.224013 0.207151 2.1732 2.10303 0.207151 0.190288 0.244694 0.239066 0.126077 0.123273 0.239066 0.233438 0.123273 0.120469 0.126077 0.123273 0.00746033 0.00748049 0.123273 0.120469 0.00748049 0.00750065 0.233438 0.228726 0.120469 0.118156 0.228726 0.224013 0.118156 0.115843 0.120469 0.118156 0.00750065 0.0075864 0.118156 0.115843 0.0075864 0.00767214 8.44915 2.99988 8.29384 2.94175 2.99988 0.345596 2.94175 0.353338 8.29384 2.94175 8.13852 2.89931 2.94175 0.353338 2.89931 0.27102 0.224013 0.207151 0.115843 0.107454 0.207151 0.190288 0.107454 0.099066 0.115843 0.107454 0.00767214 0.00775788 0.107454 0.099066 0.00775788 0.00784363 8.13852 2.89931 7.98321 2.84153 2.89931 0.27102 2.84153 0.277232 7.98321 2.84153 7.82789 2.78451 2.84153 0.277232 2.78451 0.283444 0.27102 0.127913 0.277232 0.13711 0.127913 -0.0151926 0.13711 -0.00301232 0.277232 0.13711 0.283444 0.146306 0.13711 -0.00301232 0.146306 0.00916795 7.82789 2.78451 7.67258 2.72986 2.78451 0.283444 2.72986 0.27443 7.67258 2.72986 7.51726 2.67514 2.72986 0.27443 2.67514 0.265416 0.283444 0.146306 0.27443 0.141512 0.146306 0.00916795 0.141512 0.00859377 0.27443 0.141512 0.265416 0.136718 0.141512 0.00859377 0.136718 0.00801958 7.51726 2.67514 7.36195 2.61969 2.67514 0.265416 2.61969 0.260885 7.36195 2.61969 7.20663 2.56427 2.61969 0.260885 2.56427 0.256353 0.265416 0.136718 0.260885 0.134165 0.136718 0.00801958 0.134165 0.00744539 0.260885 0.134165 0.256353 0.131612 0.134165 0.00744539 0.131612 0.0068712 7.20663 2.56427 7.05131 2.5091 2.56427 0.256353 2.5091 0.25051 7.05131 2.5091 6.896 2.45383 2.5091 0.25051 2.45383 0.244666 0.256353 0.131612 0.25051 0.128956 0.131612 0.0068712 0.128956 0.00740256 0.25051 0.128956 0.244666 0.1263 0.128956 0.00740256 0.1263 0.00793392 6.896 2.45383 6.74068 2.3984 2.45383 0.244666 2.3984 0.239065 6.74068 2.3984 6.58537 2.34308 2.3984 0.239065 2.34308 0.233464 0.244666 0.1263 0.239065 0.123765 0.1263 0.00793392 0.123765 0.00846529 0.239065 0.123765 0.233464 0.12123 0.123765 0.00846529 0.12123 0.00899665 6.58537 2.34308 6.43005 2.28855 2.34308 0.233464 2.28855 0.228819 6.43005 2.28855 6.27474 2.23389 2.28855 0.228819 2.23389 0.224174 0.233464 0.12123 0.228819 0.119208 0.12123 0.00899665 0.119208 0.00959599 0.228819 0.119208 0.224174 0.117185 0.119208 0.00959599 0.117185 0.0101953 6.27474 2.23389 6.11942 2.17291 2.23389 0.224174 2.17291 0.207366 6.11942 2.17291 5.96411 2.10269 2.17291 0.207366 2.10269 0.190558 0.224174 0.117185 0.207366 0.10908 0.117185 0.0101953 0.10908 0.0107947 0.207366 0.10908 0.190558 0.100976 0.10908 0.0107947 0.100976 0.011394 5.96411 5.80879 2.10303 2.26982 5.80879 5.65348 2.26982 2.76168 2.10303 2.26982 0.190288 0.306625 2.26982 2.76168 0.306625 0.422962 0.190288 0.306625 0.099066 0.144505 0.306625 0.422962 0.144505 0.189943 0.099066 0.144505 0.00784363 -0.0176161 0.144505 0.189943 -0.0176161 -0.0430757 5.34285 5.18753 2.91841 2.88972 5.18753 5.03222 2.88972 2.86102 2.91841 2.88972 0.49398 0.591906 2.88972 2.86102 0.591906 0.689831 5.03222 4.8769 2.86102 2.7727 4.8769 4.72159 2.7727 2.68437 2.86102 2.7727 0.689831 0.668491 2.7727 2.68437 0.668491 0.647152 0.49398 0.591906 0.227481 0.269902 0.591906 0.689831 0.269902 0.312323 0.227481 0.269902 -0.0390175 -0.0521017 0.269902 0.312323 -0.0521017 -0.0651858 -0.868426 -0.799668 -0.32851 -0.407108 -0.799668 -0.730911 -0.407108 -0.485707 -0.32851 -0.407108 0.211407 -0.0145478 -0.407108 -0.485707 -0.0145478 -0.240502 0.190558 0.100976 0.307114 0.146684 0.100976 0.011394 0.146684 -0.0137463 0.307114 0.146684 0.423671 0.192392 0.146684 -0.0137463 0.192392 -0.0388867 5.34285 2.91926 5.18753 2.89077 2.91926 0.495666 2.89077 0.594019 5.18753 2.89077 5.03222 2.86229 2.89077 0.594019 2.86229 0.692371 0.495666 0.228719 0.594019 0.268568 0.228719 -0.0382288 0.268568 -0.0568831 0.594019 0.268568 0.692371 0.308417 0.268568 -0.0568831 0.308417 -0.0755374 5.03222 2.86229 4.8769 2.7623 2.86229 0.692371 2.7623 0.647704 4.8769 2.7623 4.72159 2.66231 2.7623 0.647704 2.66231 0.603037 5.96411 2.10269 5.80879 2.26946 2.10269 0.190558 2.26946 0.307114 5.80879 2.26946 5.65348 2.7616 2.26946 0.307114 2.7616 0.423671 1.22629 1.14514 0.351261 0.279971 1.14514 1.064 0.279971 0.208682 0.351261 0.279971 -0.523765 -0.585202 0.279971 0.208682 -0.585202 -0.646638 4.10032 3.94501 2.08816 2.03199 3.94501 3.78969 2.03199 1.97583 2.08816 2.03199 0.0759892 0.118974 2.03199 1.97583 0.118974 0.161959 3.78969 3.63438 1.97583 2.17906 3.63438 3.47906 2.17906 2.3823 1.97583 2.17906 0.161959 0.72375 2.17906 2.3823 0.72375 1.28554 0.0759892 0.118974 0.0335533 0.000332118 0.118974 0.161959 0.000332118 -0.0328891 0.0335533 0.000332118 -0.00888257 -0.11831 0.000332118 -0.0328891 -0.11831 -0.227737 0.161959 0.72375 -0.0328891 0.193293 0.72375 1.28554 0.193293 0.419475 -0.0328891 0.193293 -0.227737 -0.337165 0.193293 0.419475 -0.337165 -0.446592 
