# vtk DataFile Version 3.0
#This file was generated by the deal.II library on 2015/5/12 at 16: 3:48
ASCII
DATASET UNSTRUCTURED_GRID

POINTS 2572 double
0 0 0
5 0 0
0 5 0
5 5 0
5 0 0
10 0 0
5 5 0
10 5 0
0 5 0
5 5 0
0 10 0
5 10 0
5 5 0
10 5 0
5 10 0
10 10 0
0 -5 0
2.5 -5 0
0 -2.5 0
2.5 -2.5 0
2.5 -5 0
5 -5 0
2.5 -2.5 0
5 -2.5 0
0 -2.5 0
2.5 -2.5 0
0 0 0
2.5 0 0
2.5 -2.5 0
5 -2.5 0
2.5 0 0
5 0 0
5 -5 0
7.5 -5 0
5 -2.5 0
7.5 -2.5 0
7.5 -5 0
10 -5 0
7.5 -2.5 0
10 -2.5 0
5 -2.5 0
7.5 -2.5 0
5 0 0
7.5 0 0
7.5 -2.5 0
10 -2.5 0
7.5 0 0
10 0 0
-5 0 0
-2.5 0 0
-5 2.5 0
-2.5 2.5 0
-2.5 0 0
0 0 0
-2.5 2.5 0
0 2.5 0
-5 2.5 0
-2.5 2.5 0
-5 5 0
-2.5 5 0
-2.5 2.5 0
0 2.5 0
-2.5 5 0
0 5 0
-5 -5 0
-2.5 -5 0
-5 -2.5 0
-2.5 -2.5 0
-2.5 -5 0
0 -5 0
-2.5 -2.5 0
0 -2.5 0
-5 -2.5 0
-2.5 -2.5 0
-5 0 0
-2.5 0 0
-2.5 -2.5 0
0 -2.5 0
-2.5 0 0
0 0 0
-5 5 0
-2.5 5 0
-5 7.5 0
-2.5 7.5 0
-2.5 5 0
0 5 0
-2.5 7.5 0
0 7.5 0
-5 7.5 0
-2.5 7.5 0
-5 10 0
-2.5 10 0
-2.5 7.5 0
0 7.5 0
-2.5 10 0
0 10 0
2.5 -7.5 0
3.75 -7.5 0
2.5 -6.25 0
3.75 -6.25 0
3.75 -7.5 0
5 -7.5 0
3.75 -6.25 0
5 -6.25 0
2.5 -6.25 0
3.75 -6.25 0
2.5 -5 0
3.75 -5 0
3.75 -6.25 0
5 -6.25 0
3.75 -5 0
5 -5 0
-7.5 -7.5 0
-6.25 -7.5 0
-7.5 -6.25 0
-6.25 -6.25 0
-6.25 -7.5 0
-5 -7.5 0
-6.25 -6.25 0
-5 -6.25 0
-7.5 -6.25 0
-6.25 -6.25 0
-7.5 -5 0
-6.25 -5 0
-6.25 -6.25 0
-5 -6.25 0
-6.25 -5 0
-5 -5 0
0 -7.5 0
1.25 -7.5 0
0 -6.25 0
1.25 -6.25 0
1.25 -7.5 0
2.5 -7.5 0
1.25 -6.25 0
2.5 -6.25 0
0 -6.25 0
1.25 -6.25 0
0 -5 0
1.25 -5 0
1.25 -6.25 0
2.5 -6.25 0
1.25 -5 0
2.5 -5 0
-7.5 0 0
-6.25 0 0
-7.5 1.25 0
-6.25 1.25 0
-6.25 0 0
-5 0 0
-6.25 1.25 0
-5 1.25 0
-7.5 1.25 0
-6.25 1.25 0
-7.5 2.5 0
-6.25 2.5 0
-6.25 1.25 0
-5 1.25 0
-6.25 2.5 0
-5 2.5 0
-5 -7.5 0
-3.75 -7.5 0
-5 -6.25 0
-3.75 -6.25 0
-3.75 -7.5 0
-2.5 -7.5 0
-3.75 -6.25 0
-2.5 -6.25 0
-5 -6.25 0
-3.75 -6.25 0
-5 -5 0
-3.75 -5 0
-3.75 -6.25 0
-2.5 -6.25 0
-3.75 -5 0
-2.5 -5 0
5 -7.5 0
6.25 -7.5 0
5 -6.25 0
6.25 -6.25 0
6.25 -7.5 0
7.5 -7.5 0
6.25 -6.25 0
7.5 -6.25 0
5 -6.25 0
6.25 -6.25 0
5 -5 0
6.25 -5 0
6.25 -6.25 0
7.5 -6.25 0
6.25 -5 0
7.5 -5 0
-7.5 2.5 0
-6.25 2.5 0
-7.5 3.75 0
-6.25 3.75 0
-6.25 2.5 0
-5 2.5 0
-6.25 3.75 0
-5 3.75 0
-6.25 3.75 0
-5 3.75 0
-6.25 5 0
-5 5 0
-7.5 -5 0
-6.25 -5 0
-7.5 -3.75 0
-6.25 -3.75 0
-6.25 -5 0
-5 -5 0
-6.25 -3.75 0
-5 -3.75 0
-7.5 -3.75 0
-6.25 -3.75 0
-7.5 -2.5 0
-6.25 -2.5 0
-6.25 -3.75 0
-5 -3.75 0
-6.25 -2.5 0
-5 -2.5 0
-10 6.25 0
-8.75 6.25 0
-10 7.5 0
-8.75 7.5 0
7.5 -10 0
8.75 -10 0
7.5 -8.75 0
8.75 -8.75 0
8.75 -10 0
10 -10 0
8.75 -8.75 0
10 -8.75 0
-6.25 5 0
-5 5 0
-6.25 6.25 0
-5 6.25 0
-6.25 6.25 0
-5 6.25 0
-6.25 7.5 0
-5 7.5 0
-2.5 -7.5 0
-1.25 -7.5 0
-2.5 -6.25 0
-1.25 -6.25 0
-1.25 -7.5 0
0 -7.5 0
-1.25 -6.25 0
0 -6.25 0
-2.5 -6.25 0
-1.25 -6.25 0
-2.5 -5 0
-1.25 -5 0
-1.25 -6.25 0
0 -6.25 0
-1.25 -5 0
0 -5 0
-7.5 -2.5 0
-6.25 -2.5 0
-7.5 -1.25 0
-6.25 -1.25 0
-6.25 -2.5 0
-5 -2.5 0
-6.25 -1.25 0
-5 -1.25 0
-7.5 -1.25 0
-6.25 -1.25 0
-7.5 0 0
-6.25 0 0
-6.25 -1.25 0
-5 -1.25 0
-6.25 0 0
-5 0 0
-10 7.5 0
-8.75 7.5 0
-10 8.75 0
-8.75 8.75 0
-10 8.75 0
-8.75 8.75 0
-10 10 0
-8.75 10 0
-6.25 7.5 0
-5 7.5 0
-6.25 8.75 0
-5 8.75 0
-7.5 8.75 0
-6.25 8.75 0
-7.5 10 0
-6.25 10 0
-6.25 8.75 0
-5 8.75 0
-6.25 10 0
-5 10 0
7.5 -7.5 0
8.75 -7.5 0
7.5 -6.25 0
8.75 -6.25 0
8.75 -7.5 0
10 -7.5 0
8.75 -6.25 0
10 -6.25 0
7.5 -6.25 0
8.75 -6.25 0
7.5 -5 0
8.75 -5 0
8.75 -6.25 0
10 -6.25 0
8.75 -5 0
10 -5 0
-6.875 -8.75 0
-6.25 -8.75 0
-6.875 -8.125 0
-6.25 -8.125 0
-7.5 -8.125 0
-6.875 -8.125 0
-7.5 -7.5 0
-6.875 -7.5 0
-6.875 -8.125 0
-6.25 -8.125 0
-6.875 -7.5 0
-6.25 -7.5 0
0 -8.75 0
0.625 -8.75 0
0 -8.125 0
0.625 -8.125 0
0 -8.125 0
0.625 -8.125 0
0 -7.5 0
0.625 -7.5 0
0.625 -8.125 0
1.25 -8.125 0
0.625 -7.5 0
1.25 -7.5 0
1.25 -8.125 0
1.875 -8.125 0
1.25 -7.5 0
1.875 -7.5 0
1.875 -8.125 0
2.5 -8.125 0
1.875 -7.5 0
2.5 -7.5 0
-6.25 -8.75 0
-5.625 -8.75 0
-6.25 -8.125 0
-5.625 -8.125 0
-5.625 -8.75 0
-5 -8.75 0
-5.625 -8.125 0
-5 -8.125 0
-6.25 -8.125 0
-5.625 -8.125 0
-6.25 -7.5 0
-5.625 -7.5 0
-5.625 -8.125 0
-5 -8.125 0
-5.625 -7.5 0
-5 -7.5 0
-8.75 0 0
-8.125 0 0
-8.75 0.625 0
-8.125 0.625 0
-8.125 0 0
-7.5 0 0
-8.125 0.625 0
-7.5 0.625 0
-8.125 0.625 0
-7.5 0.625 0
-8.125 1.25 0
-7.5 1.25 0
-8.125 1.25 0
-7.5 1.25 0
-8.125 1.875 0
-7.5 1.875 0
-8.125 1.875 0
-7.5 1.875 0
-8.125 2.5 0
-7.5 2.5 0
-8.125 -7.5 0
-7.5 -7.5 0
-8.125 -6.875 0
-7.5 -6.875 0
-8.75 -6.875 0
-8.125 -6.875 0
-8.75 -6.25 0
-8.125 -6.25 0
-8.125 -6.875 0
-7.5 -6.875 0
-8.125 -6.25 0
-7.5 -6.25 0
-8.75 -6.25 0
-8.125 -6.25 0
-8.75 -5.625 0
-8.125 -5.625 0
-8.125 -6.25 0
-7.5 -6.25 0
-8.125 -5.625 0
-7.5 -5.625 0
-8.75 -5.625 0
-8.125 -5.625 0
-8.75 -5 0
-8.125 -5 0
-8.125 -5.625 0
-7.5 -5.625 0
-8.125 -5 0
-7.5 -5 0
-5 -8.75 0
-4.375 -8.75 0
-5 -8.125 0
-4.375 -8.125 0
-5 -8.125 0
-4.375 -8.125 0
-5 -7.5 0
-4.375 -7.5 0
-4.375 -8.125 0
-3.75 -8.125 0
-4.375 -7.5 0
-3.75 -7.5 0
-8.125 -8.125 0
-7.5 -8.125 0
-8.125 -7.5 0
-7.5 -7.5 0
-3.75 -8.125 0
-3.125 -8.125 0
-3.75 -7.5 0
-3.125 -7.5 0
-3.125 -8.125 0
-2.5 -8.125 0
-3.125 -7.5 0
-2.5 -7.5 0
-8.75 2.5 0
-8.125 2.5 0
-8.75 3.125 0
-8.125 3.125 0
-8.125 2.5 0
-7.5 2.5 0
-8.125 3.125 0
-7.5 3.125 0
-8.75 3.125 0
-8.125 3.125 0
-8.75 3.75 0
-8.125 3.75 0
-8.125 3.125 0
-7.5 3.125 0
-8.125 3.75 0
-7.5 3.75 0
-8.75 -5 0
-8.125 -5 0
-8.75 -4.375 0
-8.125 -4.375 0
-8.125 -5 0
-7.5 -5 0
-8.125 -4.375 0
-7.5 -4.375 0
-8.125 -4.375 0
-7.5 -4.375 0
-8.125 -3.75 0
-7.5 -3.75 0
1.25 -10 0
1.875 -10 0
1.25 -9.375 0
1.875 -9.375 0
1.875 -10 0
2.5 -10 0
1.875 -9.375 0
2.5 -9.375 0
-10 3.75 0
-9.375 3.75 0
-10 4.375 0
-9.375 4.375 0
-9.375 3.75 0
-8.75 3.75 0
-9.375 4.375 0
-8.75 4.375 0
-10 4.375 0
-9.375 4.375 0
-10 5 0
-9.375 5 0
-8.125 3.75 0
-7.5 3.75 0
-8.125 4.375 0
-7.5 4.375 0
2.5 -10 0
3.125 -10 0
2.5 -9.375 0
3.125 -9.375 0
2.5 -8.75 0
3.125 -8.75 0
2.5 -8.125 0
3.125 -8.125 0
2.5 -8.125 0
3.125 -8.125 0
2.5 -7.5 0
3.125 -7.5 0
3.125 -8.125 0
3.75 -8.125 0
3.125 -7.5 0
3.75 -7.5 0
5 -8.75 0
5.625 -8.75 0
5 -8.125 0
5.625 -8.125 0
5.625 -8.75 0
6.25 -8.75 0
5.625 -8.125 0
6.25 -8.125 0
5 -8.125 0
5.625 -8.125 0
5 -7.5 0
5.625 -7.5 0
5.625 -8.125 0
6.25 -8.125 0
5.625 -7.5 0
6.25 -7.5 0
-10 1.875 0
-9.375 1.875 0
-10 2.5 0
-9.375 2.5 0
5 -10 0
5.625 -10 0
5 -9.375 0
5.625 -9.375 0
5.625 -10 0
6.25 -10 0
5.625 -9.375 0
6.25 -9.375 0
5 -9.375 0
5.625 -9.375 0
5 -8.75 0
5.625 -8.75 0
-10 2.5 0
-9.375 2.5 0
-10 3.125 0
-9.375 3.125 0
-10 3.125 0
-9.375 3.125 0
-10 3.75 0
-9.375 3.75 0
-9.375 3.125 0
-8.75 3.125 0
-9.375 3.75 0
-8.75 3.75 0
-1.875 -8.75 0
-1.25 -8.75 0
-1.875 -8.125 0
-1.25 -8.125 0
-2.5 -8.125 0
-1.875 -8.125 0
-2.5 -7.5 0
-1.875 -7.5 0
-1.875 -8.125 0
-1.25 -8.125 0
-1.875 -7.5 0
-1.25 -7.5 0
-1.25 -8.75 0
-0.625 -8.75 0
-1.25 -8.125 0
-0.625 -8.125 0
-0.625 -8.75 0
0 -8.75 0
-0.625 -8.125 0
0 -8.125 0
-1.25 -8.125 0
-0.625 -8.125 0
-1.25 -7.5 0
-0.625 -7.5 0
-0.625 -8.125 0
0 -8.125 0
-0.625 -7.5 0
0 -7.5 0
-8.125 -3.75 0
-7.5 -3.75 0
-8.125 -3.125 0
-7.5 -3.125 0
-8.125 -3.125 0
-7.5 -3.125 0
-8.125 -2.5 0
-7.5 -2.5 0
-8.125 -2.5 0
-7.5 -2.5 0
-8.125 -1.875 0
-7.5 -1.875 0
-8.75 -1.875 0
-8.125 -1.875 0
-8.75 -1.25 0
-8.125 -1.25 0
-8.125 -1.875 0
-7.5 -1.875 0
-8.125 -1.25 0
-7.5 -1.25 0
-8.75 -1.25 0
-8.125 -1.25 0
-8.75 -0.625 0
-8.125 -0.625 0
-8.125 -1.25 0
-7.5 -1.25 0
-8.125 -0.625 0
-7.5 -0.625 0
-8.75 -0.625 0
-8.125 -0.625 0
-8.75 0 0
-8.125 0 0
-8.125 -0.625 0
-7.5 -0.625 0
-8.125 0 0
-7.5 0 0
4.375 -8.75 0
5 -8.75 0
4.375 -8.125 0
5 -8.125 0
3.75 -8.125 0
4.375 -8.125 0
3.75 -7.5 0
4.375 -7.5 0
4.375 -8.125 0
5 -8.125 0
4.375 -7.5 0
5 -7.5 0
-8.75 5 0
-8.125 5 0
-8.75 5.625 0
-8.125 5.625 0
-8.125 5 0
-7.5 5 0
-8.125 5.625 0
-7.5 5.625 0
-8.75 5.625 0
-8.125 5.625 0
-8.75 6.25 0
-8.125 6.25 0
6.875 -8.75 0
7.5 -8.75 0
6.875 -8.125 0
7.5 -8.125 0
6.25 -8.125 0
6.875 -8.125 0
6.25 -7.5 0
6.875 -7.5 0
6.875 -8.125 0
7.5 -8.125 0
6.875 -7.5 0
7.5 -7.5 0
6.25 -10 0
6.875 -10 0
6.25 -9.375 0
6.875 -9.375 0
6.875 -10 0
7.5 -10 0
6.875 -9.375 0
7.5 -9.375 0
6.25 -9.375 0
6.875 -9.375 0
6.25 -8.75 0
6.875 -8.75 0
6.875 -9.375 0
7.5 -9.375 0
6.875 -8.75 0
7.5 -8.75 0
-7.5 3.75 0
-6.875 3.75 0
-7.5 4.375 0
-6.875 4.375 0
-6.875 3.75 0
-6.25 3.75 0
-6.875 4.375 0
-6.25 4.375 0
-7.5 4.375 0
-6.875 4.375 0
-7.5 5 0
-6.875 5 0
-6.875 4.375 0
-6.25 4.375 0
-6.875 5 0
-6.25 5 0
-7.5 5 0
-6.875 5 0
-7.5 5.625 0
-6.875 5.625 0
-6.875 5 0
-6.25 5 0
-6.875 5.625 0
-6.25 5.625 0
-6.875 5.625 0
-6.25 5.625 0
-6.875 6.25 0
-6.25 6.25 0
-10 5 0
-9.375 5 0
-10 5.625 0
-9.375 5.625 0
-9.375 5 0
-8.75 5 0
-9.375 5.625 0
-8.75 5.625 0
-10 5.625 0
-9.375 5.625 0
-10 6.25 0
-9.375 6.25 0
-9.375 5.625 0
-8.75 5.625 0
-9.375 6.25 0
-8.75 6.25 0
-8.75 6.25 0
-8.125 6.25 0
-8.75 6.875 0
-8.125 6.875 0
-8.125 6.25 0
-7.5 6.25 0
-8.125 6.875 0
-7.5 6.875 0
-8.75 6.875 0
-8.125 6.875 0
-8.75 7.5 0
-8.125 7.5 0
-8.125 6.875 0
-7.5 6.875 0
-8.125 7.5 0
-7.5 7.5 0
7.5 -8.75 0
8.125 -8.75 0
7.5 -8.125 0
8.125 -8.125 0
8.125 -8.75 0
8.75 -8.75 0
8.125 -8.125 0
8.75 -8.125 0
7.5 -8.125 0
8.125 -8.125 0
7.5 -7.5 0
8.125 -7.5 0
8.125 -8.125 0
8.75 -8.125 0
8.125 -7.5 0
8.75 -7.5 0
8.75 -8.75 0
9.375 -8.75 0
8.75 -8.125 0
9.375 -8.125 0
9.375 -8.75 0
10 -8.75 0
9.375 -8.125 0
10 -8.125 0
8.75 -8.125 0
9.375 -8.125 0
8.75 -7.5 0
9.375 -7.5 0
9.375 -8.125 0
10 -8.125 0
9.375 -7.5 0
10 -7.5 0
-7.5 6.25 0
-6.875 6.25 0
-7.5 6.875 0
-6.875 6.875 0
-6.875 6.25 0
-6.25 6.25 0
-6.875 6.875 0
-6.25 6.875 0
-7.5 6.875 0
-6.875 6.875 0
-7.5 7.5 0
-6.875 7.5 0
-6.875 6.875 0
-6.25 6.875 0
-6.875 7.5 0
-6.25 7.5 0
-8.75 7.5 0
-8.125 7.5 0
-8.75 8.125 0
-8.125 8.125 0
-8.125 7.5 0
-7.5 7.5 0
-8.125 8.125 0
-7.5 8.125 0
-8.75 8.125 0
-8.125 8.125 0
-8.75 8.75 0
-8.125 8.75 0
-8.125 8.125 0
-7.5 8.125 0
-8.125 8.75 0
-7.5 8.75 0
-8.75 8.75 0
-8.125 8.75 0
-8.75 9.375 0
-8.125 9.375 0
-8.125 8.75 0
-7.5 8.75 0
-8.125 9.375 0
-7.5 9.375 0
-8.75 9.375 0
-8.125 9.375 0
-8.75 10 0
-8.125 10 0
-8.125 9.375 0
-7.5 9.375 0
-8.125 10 0
-7.5 10 0
-7.5 7.5 0
-6.875 7.5 0
-7.5 8.125 0
-6.875 8.125 0
-6.875 7.5 0
[...]
POINT_DATA 2572
SCALARS V double 1
LOOKUP_TABLE default
0.0158243 -0.00729077 -0.0246424 0.00664095 -0.00729077 0 0.00664095 0 -0.0246424 0.00664095 0 0 0.00664095 0 0 0 0.0010679 0.00971963 0.00941082 0.00756201 0.00971963 0.0273092 0.00756201 0.00490163 0.00941082 0.00756201 0.0158243 0.00426677 0.00756201 0.00490163 0.00426677 -0.00729077 0.0273092 -0.0124532 0.00490163 0.0083838 -0.0124532 0 0.0083838 0 0.00490163 0.0083838 -0.00729077 -0.00364539 0.0083838 0 -0.00364539 0 -0.00237837 0.00736027 0.0529039 0.0314498 0.00736027 0.0158243 0.0314498 -0.00440904 0.0529039 0.0314498 0.0852195 0.053498 0.0314498 -0.00440904 0.053498 -0.0246424 0.00651285 0.00305343 0.000223184 0.00596953 0.00305343 0.0010679 0.00596953 0.00941082 0.000223184 0.00596953 -0.00237837 0.00736027 0.00596953 0.00941082 0.00736027 0.0158243 0.0852195 0.053498 0.0356811 0.0291504 0.053498 -0.0246424 0.0291504 -0.0123212 0.0356811 0.0291504 0 0 0.0291504 -0.0123212 0 0 0.0235089 0.137806 0.0202956 0.0906519 0.137806 0.0850016 0.0906519 0.133538 0.0202956 0.0906519 0.00971963 0.0185144 0.0906519 0.133538 0.0185144 0.0273092 0.00552696 -0.00252525 -0.00288142 -0.00710376 -0.00252525 0.00235487 -0.00710376 -0.00064662 -0.00288142 -0.00710376 0.00177433 -0.00110394 -0.00710376 -0.00064662 -0.00110394 0.00651285 0.00473647 0.00416461 0.0019544 0.00363108 0.00416461 0.0235089 0.00363108 0.0202956 0.0019544 0.00363108 0.0010679 0.00539376 0.00363108 0.0202956 0.00539376 0.00971963 -0.0123366 -0.00945316 -0.0303588 -0.0131342 -0.00945316 -0.00237837 -0.0131342 0.0252628 -0.0303588 -0.0131342 -0.135146 -0.0284902 -0.0131342 0.0252628 -0.0284902 0.0529039 0.00235487 0.00249763 -0.00064662 -0.00102835 0.00249763 -3.02442e-05 -0.00102835 0.000602538 -0.00064662 -0.00102835 0.00651285 0.00478314 -0.00102835 0.000602538 0.00478314 0.00305343 0.0850016 -0.191755 0.133538 -0.0461002 -0.191755 -0.289777 -0.0461002 -0.210394 0.133538 -0.0461002 0.0273092 0.00742803 -0.0461002 -0.210394 0.00742803 -0.0124532 -0.135146 -0.0284902 -0.426871 -0.157241 -0.0284902 0.0529039 -0.157241 0.0690617 -0.157241 0.0690617 -0.307027 0.0852195 0.00177433 -0.00110394 0.00316677 -0.00111573 -0.00110394 0.00651285 -0.00111573 0.00336802 0.00316677 -0.00111573 0.000820843 0.000119625 -0.00111573 0.00336802 0.000119625 0.000223184 2.82937 1.10143 2.21429 0.834071 2.21429 1.59921 0.691151 0.710524 1.59921 0.984127 0.710524 0.369048 -0.307027 0.0852195 -0.302911 0.0601915 -0.302911 0.0601915 -0.252701 0.0356811 -3.02442e-05 0.000632007 0.000602538 0.0015002 0.000632007 0.00473647 0.0015002 0.0019544 0.000602538 0.0015002 0.00305343 0.00206066 0.0015002 0.0019544 0.00206066 0.0010679 0.000820843 0.000119625 -0.00424109 -0.00401137 0.000119625 0.000223184 -0.00401137 -0.0010776 -0.00424109 -0.00401137 -0.0123366 -0.00945316 -0.00401137 -0.0010776 -0.00945316 -0.00237837 2.21429 0.834071 1.59921 0.667088 1.59921 0.667088 0.984127 0.369048 -0.252701 0.0356811 -0.145994 0.0178405 -0.188615 -0.145994 0 0 -0.145994 0.0178405 0 0 -0.289777 -0.129321 -0.210394 -0.124337 -0.129321 0 -0.124337 0 -0.210394 -0.124337 -0.0124532 -0.00622659 -0.124337 0 -0.00622659 0 0.163601 0.178829 -0.00333236 0.0136596 0.00874246 -0.00333236 0.00552696 0.00150085 -0.00333236 0.0136596 0.00150085 -0.00252525 0.149195 0.170149 0.00546284 -0.00133913 0.00546284 -0.00133913 0.00473647 0.00445054 -0.00133913 0.000786078 0.00445054 0.00416461 0.000786078 -0.00367867 0.00416461 0.0138368 -0.00367867 0.00788201 0.0138368 0.0235089 0.178829 0.17448 0.0136596 0.0118287 0.17448 0.169886 0.0118287 0.0146454 0.0136596 0.0118287 -0.00252525 -8.51905e-05 0.0118287 0.0146454 -8.51905e-05 0.00235487 0.148495 -0.00282666 0.167186 -0.017319 -0.00282666 -0.0123366 -0.017319 -0.0213477 -0.017319 -0.0213477 -0.0283322 -0.0303588 -0.0283322 -0.0303588 -0.0616088 -0.0827526 -0.0616088 -0.0827526 -0.175015 -0.135146 0.00871732 0.00552696 -0.00342276 0.00132277 0.163599 -0.00342276 0.178821 0.0134774 -0.00342276 0.00132277 0.0134774 -0.00288142 0.178821 0.0134774 0.174468 0.0115551 0.0134774 -0.00288142 0.0115551 -0.000553546 0.174468 0.0115551 0.169872 0.0144053 0.0115551 -0.000553546 0.0144053 0.00177433 0.169886 0.157274 0.0146454 0.000214854 0.0146454 0.000214854 0.00235487 0.00242625 0.000214854 0.00206639 0.00242625 0.00249763 -0.00607928 0.00874246 0.00871732 0.00552696 0.00206639 -0.00024997 0.00249763 0.00123369 -0.00024997 -0.00055451 0.00123369 -3.02442e-05 0.0961163 -0.175015 0.047757 -0.336776 -0.175015 -0.135146 -0.336776 -0.281009 0.047757 -0.336776 0.138332 -0.43876 -0.336776 -0.281009 -0.43876 -0.426871 0.169872 0.0144053 0.157261 0.000182152 0.0144053 0.00177433 0.000182152 0.00247055 0.000182152 0.00247055 0.00234889 0.00316677 5.28968 4.98214 1.73319 1.73459 4.98214 4.6746 1.73459 1.67586 4.05953 1.71892 3.75199 1.99969 1.71892 0.138332 1.99969 0.592949 3.75199 1.99969 3.44445 2.26953 -0.43876 -0.426871 -0.159846 -0.433572 4.6746 4.36706 1.67586 1.46177 0.23573 0.201215 0.00788201 0.038027 0.00788201 0.038027 0.0235089 0.0806576 0.038027 0.0541737 0.0806576 0.137806 0.111377 0.0628833 -0.0834964 -0.202687 0.0628833 0.0956692 -0.202687 -0.258615 -0.0834964 -0.202687 0.0850016 -0.0533767 -0.202687 -0.258615 -0.0533767 -0.191755 4.98214 1.70647 4.6746 1.62958 3.44445 3.13691 1.32619 1.29998 3.13691 2.82937 1.29998 1.26878 1.32619 1.29998 0.111377 0.0628833 4.6746 1.62958 4.36706 1.59381 4.36706 1.59381 4.05953 1.71892 1.59381 0.047757 1.71892 0.138332 0.145545 0.150255 -0.00518269 0.00282227 -0.00055451 -0.00518269 -3.02442e-05 0.000300881 -0.00518269 0.00282227 0.000300881 0.000632007 0.150255 0.143728 0.00282227 0.00146195 0.143728 0.149195 0.00146195 0.00546284 0.00282227 0.00146195 0.000632007 0.00268424 0.00146195 0.00546284 0.00268424 0.00473647 0.00234889 0.00316677 0.00037449 0.00199381 0.00037449 0.00199381 -0.000200898 0.000820843 -0.000200898 0.000820843 -0.00603406 -0.00171012 0.145511 -0.00603406 0.150196 6.52882e-05 -0.00603406 -0.00171012 6.52882e-05 -0.00424109 0.150196 6.52882e-05 0.14365 -0.00310216 6.52882e-05 -0.00424109 -0.00310216 -0.00828886 0.14365 -0.00310216 0.148495 -0.00282666 -0.00310216 -0.00828886 -0.00282666 -0.0123366 0.141334 0.111377 -0.0152015 -0.0834964 0.0541737 -0.0152015 0.137806 0.111404 -0.0152015 -0.0834964 0.111404 0.0850016 1.09461 0.179512 1.09802 0.273809 0.179512 -0.435823 0.273809 -0.392727 1.09802 0.273809 1.10143 0.341485 0.386683 0.691151 -0.110193 0.200687 -0.258615 -0.110193 -0.191755 -0.240766 -0.110193 0.200687 -0.240766 -0.289777 2.82937 2.52183 1.26878 1.35275 2.52183 2.21429 1.35275 1.45272 1.26878 1.35275 0.0956692 0.386683 1.35275 1.45272 0.386683 0.691151 -0.426871 -0.292056 -0.433572 -0.346392 -0.292056 -0.157241 -0.346392 -0.232134 -0.433572 -0.346392 -0.435823 -0.392364 -0.346392 -0.232134 -0.392364 -0.307027 -0.435823 -0.392364 -0.392727 -0.491345 -0.392364 -0.307027 -0.491345 -0.304969 -0.491345 -0.304969 -0.360688 -0.302911 3.44445 2.26953 3.13691 2.11746 2.26953 1.09461 2.11746 1.09802 3.13691 2.11746 2.82937 1.9654 2.11746 1.09802 1.9654 1.10143 1.10143 0.341485 0.967753 0.28824 0.341485 -0.418464 0.28824 -0.391273 0.967753 0.28824 0.834071 0.234995 0.28824 -0.391273 0.234995 -0.364082 0.691151 0.700838 0.200687 0.245644 0.700838 0.710524 0.245644 0.290602 0.200687 0.245644 -0.289777 -0.209549 0.245644 0.290602 -0.209549 -0.129321 0.710524 0.539786 0.290602 0.237563 0.539786 0.369048 0.237563 0.184524 0.290602 0.237563 -0.129321 -0.0646605 0.237563 0.184524 -0.0646605 0 -0.418464 -0.360688 -0.391273 -0.334539 -0.360688 -0.302911 -0.334539 -0.277806 -0.391273 -0.334539 -0.364082 -0.308391 -0.334539 -0.277806 -0.308391 -0.252701 0.834071 0.234995 0.75058 0.237116 0.234995 -0.364082 0.237116 -0.276348 0.75058 0.237116 0.667088 0.239237 0.237116 -0.276348 0.239237 -0.188615 0.667088 0.239237 0.518068 0.21188 0.239237 -0.188615 0.21188 -0.0943074 0.518068 0.21188 0.369048 0.184524 0.21188 -0.0943074 0.184524 0 -0.364082 -0.308391 -0.276348 -0.237848 -0.308391 -0.252701 -0.237848 -0.199347 -0.276348 -0.237848 -0.188615 -0.167304 -0.237848 -0.199347 -0.167304 -0.145994 10.8254 10.6716 10.6716 8.77171 10.6716 10.5179 8.77171 7.28935 10.6716 8.77171 10.5179 7.28935 8.77171 7.28935 7.28935 4.81834 10.5179 10.3641 7.28935 6.42292 10.3641 10.2103 6.42292 6.03242 7.28935 6.42292 4.81834 3.42367 6.42292 6.03242 3.42367 2.85976 10.5179 7.28935 10.3641 6.42292 7.28935 4.81834 6.42292 3.42367 10.3641 6.42292 10.2103 6.03242 6.42292 3.42367 6.03242 2.85976 4.81834 3.42367 3.42367 1.74882 3.42367 2.85976 1.74882 1.089 3.42367 1.74882 2.85976 1.089 1.74882 1.089 1.089 0.405 10.2103 10.0566 6.03242 5.873 10.0566 9.90278 5.873 5.77737 6.03242 5.873 2.85976 2.69506 5.873 5.77737 2.69506 2.64453 9.90278 9.74901 5.77737 5.68726 9.74901 9.59524 5.68726 5.5948 5.77737 5.68726 2.64453 2.60116 5.68726 5.5948 2.60116 2.55465 2.55465 2.50906 0.859174 0.839316 2.50906 2.46658 0.839316 0.821254 0.859174 0.839316 0.186634 0.175117 0.839316 0.821254 0.175117 0.163601 2.46658 2.42589 0.821254 0.804655 2.42589 2.3851 0.804655 0.793101 0.821254 0.804655 0.163601 0.18118 0.804655 0.793101 0.18118 0.178829 10.2103 6.03242 10.0566 5.873 6.03242 2.85976 5.873 2.69506 10.0566 5.873 9.90278 5.77737 5.873 2.69506 5.77737 2.64453 2.3851 2.34459 0.793101 0.779883 2.34459 2.30371 0.779883 0.766421 0.793101 0.779883 0.178829 0.177387 0.779883 0.766421 0.177387 0.17448 9.90278 5.77737 9.74901 5.68726 5.77737 2.64453 5.68726 2.60116 9.74901 5.68726 9.59524 5.5948 5.68726 2.60116 5.5948 2.55466 2.30371 2.26317 0.766421 0.753165 2.26317 2.22436 0.753165 0.742229 0.766421 0.753165 0.17448 0.172139 0.753165 0.742229 0.172139 0.169886 9.59524 9.44147 5.5948 5.50295 9.44147 9.2877 5.50295 5.41229 5.5948 5.50295 2.55465 2.50906 5.50295 5.41229 2.50906 2.46658 9.2877 9.13393 5.41229 5.32245 9.13393 8.98016 5.32245 5.23305 5.41229 5.32245 2.46658 2.42589 5.32245 5.23305 2.42589 2.3851 2.55466 0.859178 2.50907 0.839324 0.859178 0.186633 0.839324 0.175116 2.50907 0.839324 2.46659 0.821267 0.839324 0.175116 0.821267 0.163599 2.46659 0.821267 2.42591 0.804674 0.821267 0.163599 0.804674 0.181174 2.42591 0.804674 2.38513 0.793127 0.804674 0.181174 0.793127 0.178821 8.98016 8.82639 5.23305 5.14352 8.82639 8.67262 5.14352 5.05391 5.23305 5.14352 2.3851 2.34459 5.14352 5.05391 2.34459 2.30371 8.67262 8.51885 5.05391 4.96446 8.51885 8.36508 4.96446 4.87581 5.05391 4.96446 2.30371 2.26317 4.96446 4.87581 2.26317 2.22436 2.38513 0.793127 2.34462 0.779915 0.793127 0.178821 0.779915 0.177377 2.34462 0.779915 2.30375 0.766458 0.779915 0.177377 0.766458 0.174468 2.30375 0.766458 2.26321 0.753202 0.766458 0.174468 0.753202 0.172127 2.26321 0.753202 2.22439 0.742259 0.753202 0.172127 0.742259 0.169872 9.59524 5.5948 9.44147 5.50295 5.5948 2.55466 5.50295 2.50907 9.44147 5.50295 9.2877 5.41229 5.50295 2.50907 5.41229 2.46659 2.22436 2.18882 0.742229 0.733915 2.18882 2.15505 0.733915 0.731714 0.742229 0.733915 0.169886 0.172318 0.733915 0.731714 0.172318 0.157274 9.2877 5.41229 9.13393 5.32246 5.41229 2.46659 5.32246 2.42591 9.13393 5.32246 8.98016 5.23306 5.32246 2.42591 5.23306 2.38513 2.85976 2.69506 1.089 0.924451 2.69506 2.64453 0.924451 0.89557 1.089 0.924451 0.405 0.259412 0.924451 0.89557 0.259412 0.195952 8.98016 5.23306 8.82639 5.14353 5.23306 2.38513 5.14353 2.34462 8.82639 5.14353 8.67262 5.05392 5.14353 2.34462 5.05392 2.30375 2.64453 2.60116 0.89557 0.879838 2.60116 2.55465 0.879838 0.859174 0.89557 0.879838 0.195952 0.191293 0.879838 0.859174 0.191293 0.186634 8.67262 5.05392 8.51885 4.96447 5.05392 2.30375 4.96447 2.26321 8.51885 4.96447 8.36508 4.87582 4.96447 2.26321 4.87582 2.22439 2.85976 1.089 2.69506 0.924451 1.089 0.405 0.924451 0.259411 2.69506 0.924451 2.64453 0.89557 0.924451 0.259411 0.89557 0.195951 8.36508 8.21131 4.87581 4.78851 8.21131 8.05754 4.78851 4.70259 4.87581 4.78851 2.22436 2.18882 4.78851 4.70259 2.18882 2.15505 8.05754 7.90377 4.70259 4.61675 7.90377 7.75 4.61675 4.52956 4.70259 4.61675 2.15505 2.12126 4.61675 4.52956 2.12126 2.08563 2.64453 0.89557 2.60116 0.87984 0.89557 0.195951 0.87984 0.191292 2.60116 0.87984 2.55466 0.859178 0.87984 0.191292 0.859178 0.186633 2.15505 2.12126 0.731714 0.728105 2.12126 2.08563 0.728105 0.720117 0.731714 0.728105 0.157274 0.164917 0.728105 0.720117 0.164917 0.17256 7.75 7.59623 4.52956 4.44091 7.59623 7.44246 4.44091 4.35128 4.52956 4.44091 2.08563 2.04674 4.44091 4.35128 2.04674 2.0059 7.44246 7.28869 4.35128 4.26133 7.28869 7.13492 4.26133 4.17139 4.35128 4.26133 2.0059 1.96438 4.26133 4.17139 1.96438 1.92285 2.08563 2.04674 0.720117 0.709163 2.04674 2.0059 0.709163 0.695374 0.720117 0.709163 0.17256 0.170421 0.709163 0.695374 0.170421 0.168283 2.0059 1.96438 0.695374 0.680932 1.96438 1.92285 0.680932 0.66643 0.695374 0.680932 0.168283 0.164584 0.680932 0.66643 0.164584 0.160884 7.13492 6.98115 4.17139 4.08151 6.98115 6.82738 4.08151 3.99151 4.17139 4.08151 1.92285 1.88129 4.08151 3.99151 1.88129 1.84032 6.82738 6.67361 3.99151 3.90155 6.67361 6.51984 3.90155 3.81157 3.99151 3.90155 1.84032 1.79939 3.90155 3.81157 1.79939 1.75766 2.22439 0.742259 2.18884 0.733929 0.742259 0.169872 0.733929 0.172305 2.18884 0.733929 2.15504 0.731707 0.733929 0.172305 0.731707 0.157261 1.92285 1.88129 0.66643 0.652682 1.88129 1.84032 0.652682 0.637455 0.66643 0.652682 0.160884 0.153214 0.652682 0.637455 0.153214 0.145545 6.51984 6.36607 3.81157 3.72135 6.36607 6.2123 3.72135 3.63276 3.81157 3.72135 1.75766 1.71582 3.72135 3.63276 1.71582 1.67598 6.2123 6.05853 3.63276 3.55248 6.05853 5.90476 3.55248 3.49006 3.63276 3.55248 1.67598 1.64655 3.55248 3.49006 1.64655 1.63988 1.84032 1.79939 0.637455 0.620568 1.79939 1.75766 0.620568 0.606828 0.637455 0.620568 0.145545 0.155985 0.620568 0.606828 0.155985 0.150255 1.75766 1.71582 0.606828 0.59205 1.71582 1.67598 0.59205 0.578817 0.606828 0.59205 0.150255 0.14682 0.59205 0.578817 0.14682 0.143728 8.36508 4.87582 8.21131 4.78852 4.87582 2.22439 4.78852 2.18884 8.21131 4.78852 8.05754 4.70259 4.78852 2.18884 4.70259 2.15504 1.67598 1.64655 0.578817 0.572677 1.64655 1.63988 0.572677 0.581509 0.578817 0.572677 0.143728 0.144258 0.572677 0.581509 0.144258 0.149195 8.05754 4.70259 7.90377 4.61674 4.70259 2.15504 4.61674 2.12124 7.90377 4.61674 7.75 4.52954 4.61674 2.12124 4.52954 2.08558 2.15504 0.731707 2.12124 0.728074 0.731707 0.157261 0.728074 0.164907 2.12124 0.728074 2.08558 0.720061 0.728074 0.164907 0.720061 0.172552 7.75 4.52954 7.59623 4.44088 4.52954 2.08558 4.44088 2.04667 7.59623 4.44088 7.44246 4.35124 4.44088 2.04667 4.35124 2.00582 2.08558 0.720061 2.04667 0.709082 0.720061 0.172552 0.709082 0.170419 2.04667 0.709082 2.00582 0.695275 0.709082 0.170419 0.695275 0.168286 7.44246 4.35124 7.28869 4.2613 4.35124 2.00582 4.2613 1.9643 7.28869 4.2613 7.13492 4.17137 4.2613 1.9643 4.17137 1.9228 2.00582 0.695275 1.9643 0.680834 0.695275 0.168286 0.680834 0.164584 1.9643 0.680834 1.9228 0.666367 0.680834 0.164584 0.666367 0.160882 7.13492 4.17137 6.98115 4.08152 4.17137 1.9228 4.08152 1.8813 6.98115 4.08152 6.82738 3.99155 4.08152 1.8813 3.99155 1.84042 1.9228 0.666367 1.8813 0.652693 0.666367 0.160882 0.652693 0.153197 1.8813 0.652693 1.84042 0.637575 0.652693 0.153197 0.637575 0.145511 6.82738 3.99155 6.67361 3.90164 3.99155 1.84042 3.90164 1.7996 6.67361 3.90164 6.51984 3.81171 3.90164 1.7996 3.81171 1.75798 1.84042 0.637575 1.7996 0.620825 0.637575 0.145511 0.620825 0.15593 1.7996 0.620825 1.75798 0.607231 0.620825 0.15593 0.607231 0.150196 6.51984 3.81171 6.36607 3.72153 3.81171 1.75798 3.72153 1.71626 6.36607 3.72153 6.2123 3.63301 3.72153 1.71626 3.63301 1.67653 1.75798 0.607231 1.71626 0.592604 0.607231 0.150196 0.592604 0.146773 1.71626 0.592604 1.67653 0.579514 0.592604 0.146773 0.579514 0.14365 6.2123 3.63301 6.05853 3.55275 3.63301 1.67653 3.55275 1.64724 6.05853 3.55275 5.90476 3.49057 3.55275 1.64724 3.49057 1.6406 1.67653 0.579514 1.64724 0.573473 0.579514 0.14365 0.573473 0.143982 1.64724 0.573473 1.6406 0.582313 0.573473 0.143982 0.582313 0.148495 5.90476 5.75099 3.49006 3.44851 5.75099 5.59722 3.44851 3.41716 3.49006 3.44851 1.63988 1.65978 3.44851 3.41716 1.65978 1.69315 1.63988 1.65978 0.581509 0.608134 1.65978 1.69315 0.608134 0.648203 0.581509 0.608134 0.149195 0.165784 0.608134 0.648203 0.165784 0.170149 0.186634 0.175117 0.0976882 0.0889112 0.175117 0.163601 0.0889112 0.0801343 0.0976882 0.0889112 0.00874246 0.00270505 0.0889112 0.0801343 0.00270505 -0.00333236 5.59722 5.44345 3.41716 3.38091 5.44345 5.28968 3.38091 3.32599 3.41716 3.38091 1.69315 1.72026 3.38091 3.32599 1.72026 1.73319 1.69315 1.72026 0.648203 0.685557 1.72026 1.73319 0.685557 0.71181 0.648203 0.685557 0.170149 0.192813 0.685557 0.71181 0.192813 0.215477 1.73459 1.71464 0.73006 0.730575 1.71464 1.67586 0.730575 0.716233 0.73006 0.730575 0.238523 0.237126 0.730575 0.716233 0.237126 0.23573 1.6406 0.582313 1.66091 0.608612 0.582313 0.148495 0.608612 0.163976 1.66091 0.608612 1.69265 0.64864 0.608612 0.163976 0.64864 0.167186 0.170149 0.192813 0.0844051 0.0962682 0.192813 0.215477 0.0962682 0.108131 0.0844051 0.0962682 -0.00133913 -0.000276528 0.0962682 0.108131 -0.000276528 0.000786078 1.73319 1.73459 0.71181 0.728351 1.73459 1.73459 0.728351 0.73006 0.71181 0.728351 0.215477 0.227 0.728351 0.73006 0.227 0.238523 0.215477 0.227 0.108131 0.112777 0.227 0.238523 0.112777 0.117422 0.108131 0.112777 0.000786078 -0.0014463 0.112777 0.117422 -0.0014463 -0.00367867 5.90476 3.49057 5.75099 3.44813 3.49057 1.6406 3.44813 1.66091 5.75099 3.44813 5.59722 3.42262 3.44813 1.66091 3.42262 1.69265 0.238523 0.237126 0.117422 0.119614 0.237126 0.23573 0.119614 0.121806 0.117422 0.119614 -0.00367867 0.00210167 0.119614 0.121806 0.00210167 0.00788201 1.46177 1.38683 0.611575 0.530622 1.38683 1.31189 0.530622 0.723593 0.611575 0.530622 0.201215 0.168256 0.530622 0.723593 0.168256 0.135296 5.59722 3.42262 5.44345 3.35263 3.42262 1.69265 3.35263 1.72745 5.44345 3.35263 5.28968 3.49645 3.35263 1.72745 3.49645 1.70323 1.69265 0.64864 1.72745 0.683823 0.64864 0.167186 0.683823 0.187269 1.72745 0.683823 1.70323 0.713308 0.683823 0.187269 0.713308 0.207352 0.167186 0.0749333 0.187269 0.0822216 0.0749333 -0.017319 0.0822216 -0.0228256 0.187269 0.0822216 0.207352 0.0895099 0.0822216 -0.0228256 0.0895099 -0.0283322 1.70323 0.713308 1.70485 0.722619 0.713308 0.207352 0.722619 0.202835 1.70485 0.722619 1.70647 0.702415 0.722619 0.202835 0.702415 0.198317 1.70647 0.702415 1.67883 0.669132 0.702415 0.198317 0.669132 0.147217 1.67883 0.669132 1.62958 0.612901 0.669132 0.147217 0.612901 0.0961163 0.207352 0.0895099 0.202835 0.0789321 0.0895099 -0.0283322 0.0789321 -0.0449705 0.202835 0.0789321 0.198317 0.0683544 0.0789321 -0.0449705 0.0683544 -0.0616088 0.198317 0.0683544 0.147217 0.0144526 0.0683544 -0.0616088 0.0144526 -0.118312 0.147217 0.0144526 0.0961163 -0.0394492 0.0144526 -0.118312 -0.0394492 -0.175015 0.186633 0.097675 0.175116 0.0888815 0.097675 0.00871732 0.0888815 0.00264728 0.175116 0.0888815 0.163599 0.080088 0.0888815 0.00264728 0.080088 -0.00342276 0.157274 0.164917 0.0787445 0.0830287 0.164917 0.17256 0.0830287 0.087313 0.0787445 0.0830287 0.000214854 0.00114062 0.0830287 0.087313 0.00114062 0.00206639 0.195952 0.191293 0.0949364 0.0963123 0.191293 0.186634 0.0963123 0.0976882 0.0949364 0.0963123 -0.00607928 0.00133159 0.0963123 0.0976882 0.00133159 0.00874246 0.405 0.259412 0.259411 0.111751 0.259412 0.195952 0.111751 0.0949364 0.259411 0.111751 0.195951 0.094936 0.111751 0.0949364 0.094936 -0.00607928 1.67586 1.59246 0.716233 0.668046 1.59246 1.46177 0.668046 0.611575 0.716233 0.668046 0.23573 0.238967 0.668046 0.611575 0.238967 0.201215 0.195951 0.094936 0.191292 0.0963055 0.094936 -0.00607928 0.0963055 0.00131902 0.191292 0.0963055 0.186633 0.097675 0.0963055 0.00131902 0.097675 0.00871732 0.17256 0.170421 0.087313 0.0856647 0.170421 0.168283 0.0856647 0.0840164 0.087313 0.0856647 0.00206639 0.000908211 0.0856647 0.0840164 0.000908211 -0.00024997 0.168283 0.164584 0.0840164 0.0820907 0.164584 0.160884 0.0820907 0.0801649 0.0840164 0.0820907 -0.000249