# vtk DataFile Version 3.0
#This file was generated by the deal.II library on 2015/4/22 at 22:35:33
ASCII
DATASET UNSTRUCTURED_GRID

POINTS 4432 double
0.5 0 0
0.625 0 0
0.5 0.125 0
0.625 0.125 0
0.625 0 0
0.75 0 0
0.625 0.125 0
0.75 0.125 0
0 0.5 0
0.125 0.5 0
0 0.625 0
0.125 0.625 0
0 0 0
0.125 0 0
0 0.125 0
0.125 0.125 0
0.125 0 0
0.25 0 0
0.125 0.125 0
0.25 0.125 0
0 0.125 0
0.125 0.125 0
0 0.25 0
0.125 0.25 0
0.125 0.125 0
0.25 0.125 0
0.125 0.25 0
0.25 0.25 0
0.75 0 0
0.8125 0 0
0.75 0.0625 0
0.8125 0.0625 0
0.75 0.0625 0
0.8125 0.0625 0
0.75 0.125 0
0.8125 0.125 0
0.75 0.25 0
0.8125 0.25 0
0.75 0.3125 0
0.8125 0.3125 0
0.8125 0.25 0
0.875 0.25 0
0.8125 0.3125 0
0.875 0.3125 0
0.75 0.3125 0
0.8125 0.3125 0
0.75 0.375 0
0.8125 0.375 0
0.8125 0.3125 0
0.875 0.3125 0
0.8125 0.375 0
0.875 0.375 0
0.8125 0.375 0
0.875 0.375 0
0.8125 0.4375 0
0.875 0.4375 0
0.8125 0.4375 0
0.875 0.4375 0
0.8125 0.5 0
0.875 0.5 0
0.875 0.375 0
0.9375 0.375 0
0.875 0.4375 0
0.9375 0.4375 0
0.875 0.4375 0
0.9375 0.4375 0
0.875 0.5 0
0.9375 0.5 0
0.25 0.75 0
0.3125 0.75 0
0.25 0.8125 0
0.3125 0.8125 0
0.3125 0.75 0
0.375 0.75 0
0.3125 0.8125 0
0.375 0.8125 0
0.25 0.8125 0
0.3125 0.8125 0
0.25 0.875 0
0.3125 0.875 0
0.3125 0.8125 0
0.375 0.8125 0
0.3125 0.875 0
0.375 0.875 0
0.375 0.8125 0
0.4375 0.8125 0
0.375 0.875 0
0.4375 0.875 0
0.4375 0.8125 0
0.5 0.8125 0
0.4375 0.875 0
0.5 0.875 0
0.375 0.875 0
0.4375 0.875 0
0.375 0.9375 0
0.4375 0.9375 0
0.4375 0.875 0
0.5 0.875 0
0.4375 0.9375 0
0.5 0.9375 0
0.75 0.125 0
0.8125 0.125 0
0.75 0.1875 0
0.8125 0.1875 0
0.8125 0.125 0
0.875 0.125 0
0.8125 0.1875 0
0.875 0.1875 0
0.75 0.1875 0
0.8125 0.1875 0
0.75 0.25 0
0.8125 0.25 0
0.8125 0.1875 0
0.875 0.1875 0
0.8125 0.25 0
0.875 0.25 0
0.75 0.5 0
0.8125 0.5 0
0.75 0.5625 0
0.8125 0.5625 0
0.75 0.6875 0
0.8125 0.6875 0
0.75 0.75 0
0.8125 0.75 0
0.5 0.75 0
0.5625 0.75 0
0.5 0.8125 0
0.5625 0.8125 0
0.6875 0.75 0
0.75 0.75 0
0.6875 0.8125 0
0.75 0.8125 0
0.0625 0.75 0
0.125 0.75 0
0.0625 0.8125 0
0.125 0.8125 0
0.125 0.75 0
0.1875 0.75 0
0.125 0.8125 0
0.1875 0.8125 0
0.1875 0.75 0
0.25 0.75 0
0.1875 0.8125 0
0.25 0.8125 0
0.125 0.8125 0
0.1875 0.8125 0
0.125 0.875 0
0.1875 0.875 0
0.1875 0.8125 0
0.25 0.8125 0
0.1875 0.875 0
0.25 0.875 0
0.75 0.75 0
0.8125 0.75 0
0.75 0.8125 0
0.8125 0.8125 0
0.25 0.25 0
0.3125 0.25 0
0.25 0.3125 0
0.3125 0.3125 0
0.3125 0.25 0
0.375 0.25 0
0.3125 0.3125 0
0.375 0.3125 0
0.25 0.3125 0
0.3125 0.3125 0
0.25 0.375 0
0.3125 0.375 0
0.3125 0.3125 0
0.375 0.3125 0
0.3125 0.375 0
0.375 0.375 0
0.625 0.125 0
0.6875 0.125 0
0.625 0.1875 0
0.6875 0.1875 0
0.6875 0.125 0
0.75 0.125 0
0.6875 0.1875 0
0.75 0.1875 0
0.625 0.1875 0
0.6875 0.1875 0
0.625 0.25 0
0.6875 0.25 0
0.6875 0.1875 0
0.75 0.1875 0
0.6875 0.25 0
0.75 0.25 0
0 0.625 0
0.0625 0.625 0
0 0.6875 0
0.0625 0.6875 0
0.0625 0.625 0
0.125 0.625 0
0.0625 0.6875 0
0.125 0.6875 0
0 0.6875 0
0.0625 0.6875 0
0 0.75 0
0.0625 0.75 0
0.0625 0.6875 0
0.125 0.6875 0
0.0625 0.75 0
0.125 0.75 0
0.125 0.625 0
0.1875 0.625 0
0.125 0.6875 0
0.1875 0.6875 0
0.1875 0.625 0
0.25 0.625 0
0.1875 0.6875 0
0.25 0.6875 0
0.125 0.6875 0
0.1875 0.6875 0
0.125 0.75 0
0.1875 0.75 0
0.1875 0.6875 0
0.25 0.6875 0
0.1875 0.75 0
0.25 0.75 0
0.5 0.125 0
0.5625 0.125 0
0.5 0.1875 0
0.5625 0.1875 0
0.5625 0.125 0
0.625 0.125 0
0.5625 0.1875 0
0.625 0.1875 0
0.5 0.1875 0
0.5625 0.1875 0
0.5 0.25 0
0.5625 0.25 0
0.5625 0.1875 0
0.625 0.1875 0
0.5625 0.25 0
0.625 0.25 0
0.25 0.125 0
0.3125 0.125 0
0.25 0.1875 0
0.3125 0.1875 0
0.3125 0.125 0
0.375 0.125 0
0.3125 0.1875 0
0.375 0.1875 0
0.25 0.1875 0
0.3125 0.1875 0
0.25 0.25 0
0.3125 0.25 0
0.3125 0.1875 0
0.375 0.1875 0
0.3125 0.25 0
0.375 0.25 0
0.125 0.5 0
0.1875 0.5 0
0.125 0.5625 0
0.1875 0.5625 0
0.1875 0.5 0
0.25 0.5 0
0.1875 0.5625 0
0.25 0.5625 0
0.125 0.5625 0
0.1875 0.5625 0
0.125 0.625 0
0.1875 0.625 0
0.1875 0.5625 0
0.25 0.5625 0
0.1875 0.625 0
0.25 0.625 0
0.625 0.3125 0
0.6875 0.3125 0
0.625 0.375 0
0.6875 0.375 0
0.625 0.375 0
0.6875 0.375 0
0.625 0.4375 0
0.6875 0.4375 0
0.6875 0.375 0
0.75 0.375 0
0.6875 0.4375 0
0.75 0.4375 0
0.625 0.4375 0
0.6875 0.4375 0
0.625 0.5 0
0.6875 0.5 0
0.3125 0.625 0
0.375 0.625 0
0.3125 0.6875 0
0.375 0.6875 0
0.375 0.625 0
0.4375 0.625 0
0.375 0.6875 0
0.4375 0.6875 0
0.4375 0.625 0
0.5 0.625 0
0.4375 0.6875 0
0.5 0.6875 0
0.375 0.6875 0
0.4375 0.6875 0
0.375 0.75 0
0.4375 0.75 0
0.625 0.5 0
0.6875 0.5 0
0.625 0.5625 0
0.6875 0.5625 0
0.625 0.5625 0
0.6875 0.5625 0
0.625 0.625 0
0.6875 0.625 0
0.6875 0.5625 0
0.75 0.5625 0
0.6875 0.625 0
0.75 0.625 0
0.5 0.625 0
0.5625 0.625 0
0.5 0.6875 0
0.5625 0.6875 0
0.5625 0.625 0
0.625 0.625 0
0.5625 0.6875 0
0.625 0.6875 0
0.5625 0.6875 0
0.625 0.6875 0
0.5625 0.75 0
0.625 0.75 0
0.625 0.625 0
0.6875 0.625 0
0.625 0.6875 0
0.6875 0.6875 0
0.25 0 0
0.3125 0 0
0.25 0.0625 0
0.3125 0.0625 0
0.3125 0 0
0.375 0 0
0.3125 0.0625 0
0.375 0.0625 0
0.25 0.0625 0
0.3125 0.0625 0
0.25 0.125 0
0.3125 0.125 0
0.3125 0.0625 0
0.375 0.0625 0
0.3125 0.125 0
0.375 0.125 0
0.4375 0 0
0.5 0 0
0.4375 0.0625 0
0.5 0.0625 0
0.375 0.0625 0
0.4375 0.0625 0
0.375 0.125 0
0.4375 0.125 0
0.4375 0.0625 0
0.5 0.0625 0
0.4375 0.125 0
0.5 0.125 0
0 0.25 0
0.0625 0.25 0
0 0.3125 0
0.0625 0.3125 0
0.0625 0.25 0
0.125 0.25 0
0.0625 0.3125 0
0.125 0.3125 0
0 0.3125 0
0.0625 0.3125 0
0 0.375 0
0.0625 0.375 0
0.0625 0.3125 0
0.125 0.3125 0
0.0625 0.375 0
0.125 0.375 0
0.0625 0.375 0
0.125 0.375 0
0.0625 0.4375 0
0.125 0.4375 0
0 0.4375 0
0.0625 0.4375 0
0 0.5 0
0.0625 0.5 0
0.0625 0.4375 0
0.125 0.4375 0
0.0625 0.5 0
0.125 0.5 0
0.5625 0.5625 0
0.625 0.5625 0
0.5625 0.625 0
0.625 0.625 0
0.375 0.1875 0
0.4375 0.1875 0
0.375 0.25 0
0.4375 0.25 0
0.4375 0.1875 0
0.5 0.1875 0
0.4375 0.25 0
0.5 0.25 0
0.375 0.25 0
0.4375 0.25 0
0.375 0.3125 0
0.4375 0.3125 0
0.4375 0.25 0
0.5 0.25 0
0.4375 0.3125 0
0.5 0.3125 0
0.375 0.3125 0
0.4375 0.3125 0
0.375 0.375 0
0.4375 0.375 0
0.4375 0.3125 0
0.5 0.3125 0
0.4375 0.375 0
0.5 0.375 0
0.25 0.375 0
0.3125 0.375 0
0.25 0.4375 0
0.3125 0.4375 0
0.3125 0.375 0
0.375 0.375 0
0.3125 0.4375 0
0.375 0.4375 0
0.25 0.4375 0
0.3125 0.4375 0
0.25 0.5 0
0.3125 0.5 0
0.3125 0.4375 0
0.375 0.4375 0
0.3125 0.5 0
0.375 0.5 0
0.375 0.375 0
0.4375 0.375 0
0.375 0.4375 0
0.4375 0.4375 0
0.4375 0.375 0
0.5 0.375 0
0.4375 0.4375 0
0.5 0.4375 0
0.375 0.4375 0
0.4375 0.4375 0
0.375 0.5 0
0.4375 0.5 0
0.4375 0.4375 0
0.5 0.4375 0
0.4375 0.5 0
0.5 0.5 0
0.125 0.25 0
0.1875 0.25 0
0.125 0.3125 0
0.1875 0.3125 0
0.1875 0.25 0
0.25 0.25 0
0.1875 0.3125 0
0.25 0.3125 0
0.125 0.3125 0
0.1875 0.3125 0
0.125 0.375 0
0.1875 0.375 0
0.1875 0.3125 0
0.25 0.3125 0
0.1875 0.375 0
0.25 0.375 0
0.1875 0.375 0
0.25 0.375 0
0.1875 0.4375 0
0.25 0.4375 0
0.1875 0.4375 0
0.25 0.4375 0
0.1875 0.5 0
0.25 0.5 0
0.875 0.3125 0
0.90625 0.3125 0
0.875 0.34375 0
0.90625 0.34375 0
0.90625 0.3125 0
0.9375 0.3125 0
0.90625 0.34375 0
0.9375 0.34375 0
0.875 0.34375 0
0.90625 0.34375 0
0.875 0.375 0
0.90625 0.375 0
0.90625 0.34375 0
0.9375 0.34375 0
0.90625 0.375 0
0.9375 0.375 0
0.75 0.375 0
0.78125 0.375 0
0.75 0.40625 0
0.78125 0.40625 0
0.78125 0.375 0
0.8125 0.375 0
0.78125 0.40625 0
0.8125 0.40625 0
0.75 0.40625 0
0.78125 0.40625 0
0.75 0.4375 0
0.78125 0.4375 0
0.78125 0.40625 0
0.8125 0.40625 0
0.78125 0.4375 0
0.8125 0.4375 0
0.9375 0.375 0
0.96875 0.375 0
0.9375 0.40625 0
0.96875 0.40625 0
0.9375 0.40625 0
0.96875 0.40625 0
0.9375 0.4375 0
0.96875 0.4375 0
0.75 0.4375 0
0.78125 0.4375 0
0.75 0.46875 0
0.78125 0.46875 0
0.78125 0.4375 0
0.8125 0.4375 0
0.78125 0.46875 0
0.8125 0.46875 0
0.75 0.46875 0
0.78125 0.46875 0
0.75 0.5 0
0.78125 0.5 0
0.78125 0.46875 0
0.8125 0.46875 0
0.78125 0.5 0
0.8125 0.5 0
0.9375 0.4375 0
0.96875 0.4375 0
0.9375 0.46875 0
0.96875 0.46875 0
0.9375 0.46875 0
0.96875 0.46875 0
0.9375 0.5 0
0.96875 0.5 0
0.3125 0.875 0
0.34375 0.875 0
0.3125 0.90625 0
0.34375 0.90625 0
0.34375 0.875 0
0.375 0.875 0
0.34375 0.90625 0
0.375 0.90625 0
0.3125 0.90625 0
0.34375 0.90625 0
0.3125 0.9375 0
0.34375 0.9375 0
0.34375 0.90625 0
0.375 0.90625 0
0.34375 0.9375 0
0.375 0.9375 0
0.375 0.75 0
0.40625 0.75 0
0.375 0.78125 0
0.40625 0.78125 0
0.40625 0.75 0
0.4375 0.75 0
0.40625 0.78125 0
0.4375 0.78125 0
0.375 0.78125 0
0.40625 0.78125 0
0.375 0.8125 0
0.40625 0.8125 0
0.40625 0.78125 0
0.4375 0.78125 0
0.40625 0.8125 0
0.4375 0.8125 0
0.4375 0.75 0
0.46875 0.75 0
0.4375 0.78125 0
0.46875 0.78125 0
0.46875 0.75 0
0.5 0.75 0
0.46875 0.78125 0
0.5 0.78125 0
0.4375 0.78125 0
0.46875 0.78125 0
0.4375 0.8125 0
0.46875 0.8125 0
0.46875 0.78125 0
0.5 0.78125 0
0.46875 0.8125 0
0.5 0.8125 0
0.375 0.9375 0
0.40625 0.9375 0
0.375 0.96875 0
0.40625 0.96875 0
0.40625 0.9375 0
0.4375 0.9375 0
0.40625 0.96875 0
0.4375 0.96875 0
0.4375 0.9375 0
0.46875 0.9375 0
0.4375 0.96875 0
0.46875 0.96875 0
0.46875 0.9375 0
0.5 0.9375 0
0.46875 0.96875 0
0.5 0.96875 0
0.875 0.5 0
0.90625 0.5 0
0.875 0.53125 0
0.90625 0.53125 0
0.90625 0.5 0
0.9375 0.5 0
0.90625 0.53125 0
0.9375 0.53125 0
0.875 0.53125 0
0.90625 0.53125 0
0.875 0.5625 0
0.90625 0.5625 0
0.90625 0.53125 0
0.9375 0.53125 0
0.90625 0.5625 0
0.9375 0.5625 0
0.875 0.5625 0
0.90625 0.5625 0
0.875 0.59375 0
0.90625 0.59375 0
0.90625 0.5625 0
0.9375 0.5625 0
0.90625 0.59375 0
0.9375 0.59375 0
0.90625 0.59375 0
0.9375 0.59375 0
0.90625 0.625 0
0.9375 0.625 0
0.9375 0.5625 0
0.96875 0.5625 0
0.9375 0.59375 0
0.96875 0.59375 0
0.8125 0 0
0.84375 0 0
0.8125 0.03125 0
0.84375 0.03125 0
0.8125 0.03125 0
0.84375 0.03125 0
0.8125 0.0625 0
0.84375 0.0625 0
0.875 0.625 0
0.90625 0.625 0
0.875 0.65625 0
0.90625 0.65625 0
0.90625 0.625 0
0.9375 0.625 0
0.90625 0.65625 0
0.9375 0.65625 0
0.875 0.65625 0
0.90625 0.65625 0
0.875 0.6875 0
0.90625 0.6875 0
0.90625 0.65625 0
0.9375 0.65625 0
0.90625 0.6875 0
0.9375 0.6875 0
0.875 0.6875 0
0.90625 0.6875 0
0.875 0.71875 0
0.90625 0.71875 0
0.90625 0.6875 0
0.9375 0.6875 0
0.90625 0.71875 0
0.9375 0.71875 0
0.75 0.5625 0
0.78125 0.5625 0
0.75 0.59375 0
0.78125 0.59375 0
0.78125 0.5625 0
0.8125 0.5625 0
0.78125 0.59375 0
[...]
POINT_DATA 4432
SCALARS V double 1
LOOKUP_TABLE default
0.0492556 0.110825 0.0618383 0.115749 0.110825 0.172395 0.115749 0.185259 0.0492556 0.0618577 0.110825 0.116563 0 0 0 0.00394201 0 0 0.00394201 0.0108894 0 0.00394201 0 0.0108906 0.00394201 0.0108894 0.0108906 0.0201982 0.172395 0.203179 0.178827 0.213795 0.178827 0.213795 0.185259 0.225761 0.202731 0.250889 0.213892 0.266287 0.250889 0.304069 0.266287 0.324269 0.213892 0.266287 0.228263 0.283584 0.266287 0.324269 0.283584 0.345631 0.283584 0.345631 0.303913 0.369239 0.303913 0.369239 0.329394 0.396234 0.345631 0.411826 0.369239 0.439059 0.369239 0.439059 0.396234 0.46747 0.202777 0.213925 0.250899 0.266331 0.213925 0.228288 0.266331 0.283605 0.250899 0.266331 0.304151 0.324279 0.266331 0.283605 0.324279 0.34565 0.283605 0.303934 0.34565 0.369254 0.303934 0.329411 0.369254 0.396249 0.34565 0.369254 0.411837 0.439068 0.369254 0.396249 0.439068 0.467485 0.185259 0.225761 0.193875 0.237869 0.225761 0.268056 0.237869 0.285616 0.193875 0.237869 0.202731 0.250889 0.237869 0.285616 0.250889 0.304069 0.268405 0.329394 0.297059 0.358207 0.372914 0.431178 0.421996 0.476509 0.268422 0.297083 0.329411 0.358236 0.373049 0.421996 0.430914 0.476433 0.178935 0.185729 0.212162 0.225264 0.185729 0.193824 0.225264 0.238047 0.193824 0.202777 0.238047 0.250899 0.225264 0.238047 0.268262 0.285567 0.238047 0.250899 0.285567 0.304151 0.421996 0.476509 0.476433 0.525489 0.0201982 0.0287282 0.0287313 0.0366629 0.0287282 0.0372582 0.0366629 0.0445945 0.0287313 0.0366629 0.0372643 0.0445976 0.0366629 0.0445945 0.0445976 0.0519309 0.115749 0.150504 0.119222 0.153854 0.150504 0.185259 0.153854 0.193875 0.119222 0.153854 0.123866 0.160231 0.153854 0.193875 0.160231 0.202731 0.110825 0.113564 0.14161 0.145268 0.113564 0.116563 0.145268 0.149091 0.14161 0.145268 0.172395 0.178935 0.145268 0.149091 0.178935 0.185729 0.116563 0.119146 0.149091 0.15385 0.119146 0.123893 0.15385 0.160255 0.149091 0.15385 0.185729 0.193824 0.15385 0.160255 0.193824 0.202777 0.0618383 0.0855987 0.0662565 0.0898271 0.0855987 0.115749 0.0898271 0.119222 0.0662565 0.0898271 0.0702758 0.0936706 0.0898271 0.119222 0.0936706 0.123866 0.0108894 0.0158595 0.0160414 0.0218011 0.0158595 0.0266372 0.0218011 0.0333017 0.0160414 0.0218011 0.0201982 0.0287282 0.0218011 0.0333017 0.0287282 0.0372582 0.0618577 0.0662794 0.085643 0.0899034 0.0662794 0.0702964 0.0899034 0.0936856 0.085643 0.0899034 0.116563 0.119146 0.0899034 0.0936856 0.119146 0.123893 0.130697 0.168423 0.141352 0.180994 0.141352 0.180994 0.155911 0.197021 0.180994 0.228263 0.197021 0.246152 0.155911 0.197021 0.176028 0.217828 0.130722 0.141376 0.168452 0.181021 0.141376 0.155929 0.181021 0.197043 0.155929 0.17604 0.197043 0.217844 0.181021 0.197043 0.228288 0.246175 0.176028 0.217828 0.203159 0.245674 0.203159 0.245674 0.239069 0.280733 0.245674 0.297059 0.280733 0.331614 0.17604 0.203164 0.217844 0.245685 0.203164 0.239069 0.245685 0.280736 0.245685 0.280736 0.297083 0.331648 0.239069 0.280733 0.280736 0.321974 0 0 0.00544468 0.00991273 0 0 0.00991273 0.0170623 0.00544468 0.00991273 0.0108894 0.0158595 0.00991273 0.0170623 0.0158595 0.0266372 0.0184708 0.0492556 0.0332092 0.0569361 0.0170623 0.0332092 0.0266372 0.0395954 0.0332092 0.0569361 0.0395954 0.0618383 0 0.00544532 0 0.00991465 0.00544532 0.0108906 0.00991465 0.0158623 0 0.00991465 0 0.0170656 0.00991465 0.0158623 0.0170656 0.0266435 0.0170656 0.0266435 0.0332156 0.0396047 0.0184708 0.0332156 0.0492556 0.0569462 0.0332156 0.0396047 0.0569462 0.0618577 0.168236 0.203159 0.203164 0.239069 0.0333017 0.0457551 0.0372582 0.0504897 0.0457551 0.0662565 0.0504897 0.0702758 0.0372582 0.0504897 0.0445945 0.0577728 0.0504897 0.0702758 0.0577728 0.0757413 0.0445945 0.0577728 0.0519309 0.0663296 0.0577728 0.0757413 0.0663296 0.0844581 0.0372643 0.0445976 0.050501 0.0577821 0.0445976 0.0519309 0.0577821 0.0663346 0.050501 0.0577821 0.0702964 0.0757557 0.0577821 0.0663346 0.0757557 0.0844693 0.0519309 0.0663296 0.0663346 0.0804728 0.0663296 0.0844581 0.0804728 0.0981735 0.0663346 0.0804728 0.0844693 0.0981796 0.0804728 0.0981735 0.0981796 0.116777 0.0108906 0.016043 0.0158623 0.0218043 0.016043 0.0201982 0.0218043 0.0287313 0.0158623 0.0218043 0.0266435 0.0333093 0.0218043 0.0287313 0.0333093 0.0372643 0.0333093 0.0372643 0.0457676 0.050501 0.0457676 0.050501 0.0662794 0.0702964 0.324269 0.354528 0.335065 0.365525 0.354528 0.385198 0.365525 0.399705 0.335065 0.365525 0.345631 0.378181 0.365525 0.399705 0.378181 0.411826 0.228263 0.255923 0.237207 0.265478 0.255923 0.283584 0.265478 0.293749 0.237207 0.265478 0.246152 0.275032 0.265478 0.293749 0.275032 0.303913 0.411826 0.447736 0.425191 0.461957 0.425191 0.461957 0.439059 0.47662 0.246152 0.275032 0.257278 0.286966 0.275032 0.303913 0.286966 0.316654 0.257278 0.286966 0.268405 0.2989 0.286966 0.316654 0.2989 0.329394 0.439059 0.47662 0.452983 0.491427 0.452983 0.491427 0.46747 0.506164 0.324279 0.335082 0.354544 0.365541 0.335082 0.34565 0.365541 0.378197 0.354544 0.365541 0.38521 0.399717 0.365541 0.378197 0.399717 0.411837 0.228288 0.237232 0.255947 0.2655 0.237232 0.246175 0.2655 0.275054 0.255947 0.2655 0.283605 0.293769 0.2655 0.275054 0.293769 0.303934 0.246175 0.257299 0.275054 0.286985 0.257299 0.268422 0.286985 0.298916 0.275054 0.286985 0.303934 0.316672 0.286985 0.298916 0.316672 0.329411 0.411837 0.425201 0.447742 0.461961 0.425201 0.439068 0.461961 0.476625 0.439068 0.452992 0.476625 0.491432 0.452992 0.467485 0.491432 0.506172 0.396234 0.43097 0.410843 0.445048 0.43097 0.46747 0.445048 0.482635 0.410843 0.445048 0.426263 0.461149 0.445048 0.482635 0.461149 0.496998 0.426263 0.461149 0.442877 0.477696 0.461149 0.496998 0.477696 0.513062 0.477696 0.513062 0.494194 0.529663 0.496998 0.536419 0.513062 0.552278 0.203179 0.218572 0.208487 0.223246 0.208487 0.223246 0.213795 0.233638 0.460531 0.494194 0.476231 0.510743 0.494194 0.529663 0.510743 0.546072 0.476231 0.510743 0.495597 0.527963 0.510743 0.546072 0.527963 0.56303 0.495597 0.527963 0.515591 0.549091 0.527963 0.56303 0.549091 0.583528 0.297059 0.327633 0.314337 0.34451 0.327633 0.358207 0.34451 0.374684 0.314337 0.34451 0.331614 0.361387 0.34451 0.374684 0.361387 0.39116 0.396249 0.410861 0.430984 0.445069 0.410861 0.426269 0.445069 0.461205 0.430984 0.445069 0.467485 0.482649 0.445069 0.461205 0.482649 0.497119 0.426269 0.443204 0.461205 0.478039 0.443204 0.461107 0.478039 0.493426 0.461205 0.478039 0.497119 0.513287 0.478039 0.493426 0.513287 0.529144 0.513287 0.529144 0.55226 0.568933 0.461107 0.477264 0.493426 0.513073 0.493426 0.513073 0.529144 0.54854 0.529144 0.54854 0.568933 0.584161 0.213795 0.233638 0.219778 0.239511 0.233638 0.250082 0.239511 0.259001 0.219778 0.239511 0.225761 0.246908 0.239511 0.259001 0.246908 0.268056 0.304069 0.332414 0.314169 0.34313 0.314169 0.34313 0.324269 0.354528 0.250082 0.269456 0.259001 0.280201 0.259001 0.280201 0.268056 0.290059 0.304151 0.314215 0.332433 0.343145 0.314215 0.324279 0.343145 0.354544 0.268056 0.290059 0.276836 0.300505 0.276836 0.300505 0.285616 0.310821 0.285616 0.310821 0.294843 0.321465 0.294843 0.321465 0.304069 0.332414 0.203179 0.211249 0.218572 0.223413 0.211249 0.212162 0.223413 0.233946 0.212162 0.220902 0.233946 0.239255 0.220902 0.225264 0.239255 0.246763 0.233946 0.239255 0.250126 0.259076 0.239255 0.246763 0.259076 0.268262 0.250126 0.259076 0.269482 0.280218 0.259076 0.268262 0.280218 0.290054 0.268262 0.276914 0.290054 0.300534 0.276914 0.285567 0.300534 0.31088 0.285567 0.294859 0.31088 0.321509 0.294859 0.304151 0.321509 0.332433 0.525489 0.55345 0.553466 0.579258 0.579258 0.605972 0.605982 0.628444 0.557268 0.585106 0.580494 0.607205 0.580494 0.607205 0.605972 0.628364 0.557196 0.580496 0.585124 0.60721 0.580496 0.605982 0.60721 0.628369 0.331614 0.361387 0.352264 0.381717 0.361387 0.39116 0.381717 0.411169 0.352264 0.381717 0.372914 0.402046 0.381717 0.411169 0.402046 0.431178 0.39116 0.421696 0.411169 0.443731 0.421696 0.460531 0.443731 0.476231 0.411169 0.443731 0.431178 0.461811 0.443731 0.476231 0.461811 0.495597 0.431178 0.461811 0.452974 0.483229 0.461811 0.495597 0.483229 0.515591 0.452974 0.483229 0.476509 0.505925 0.483229 0.515591 0.505925 0.535663 0.391276 0.411095 0.421856 0.44345 0.411095 0.430914 0.44345 0.462439 0.421856 0.44345 0.461107 0.477264 0.44345 0.462439 0.477264 0.496484 0.430914 0.452724 0.462439 0.484982 0.452724 0.476433 0.484982 0.505955 0.172395 0.175665 0.187787 0.192562 0.175665 0.178935 0.192562 0.195368 0.187787 0.192562 0.203179 0.211249 0.192562 0.195368 0.211249 0.212162 0.297083 0.314366 0.327659 0.344561 0.314366 0.331648 0.344561 0.361462 0.327659 0.344561 0.358236 0.374756 0.344561 0.361462 0.374756 0.391276 0.476509 0.505925 0.499851 0.529514 0.505925 0.535663 0.529514 0.557268 0.499851 0.529514 0.525489 0.55345 0.529514 0.557268 0.55345 0.580494 0.476433 0.499823 0.505955 0.529415 0.499823 0.525489 0.529415 0.553466 0.505955 0.529415 0.535499 0.557196 0.529415 0.553466 0.557196 0.580496 0.331648 0.352349 0.361462 0.381722 0.352349 0.373049 0.381722 0.401982 0.361462 0.381722 0.391276 0.411095 0.381722 0.401982 0.411095 0.430914 0.123866 0.142048 0.127282 0.145804 0.142048 0.160231 0.145804 0.164327 0.127282 0.145804 0.130697 0.14956 0.145804 0.164327 0.14956 0.168423 0.160231 0.181481 0.164327 0.186319 0.181481 0.202731 0.186319 0.208311 0.164327 0.186319 0.168423 0.191157 0.186319 0.208311 0.191157 0.213892 0.168423 0.191157 0.174708 0.197893 0.191157 0.213892 0.197893 0.221077 0.174708 0.197893 0.180994 0.204628 0.197893 0.221077 0.204628 0.228263 0.197021 0.221587 0.207425 0.232351 0.221587 0.246152 0.232351 0.257278 0.207425 0.232351 0.217828 0.243116 0.232351 0.257278 0.243116 0.268405 0.123893 0.127308 0.142074 0.145831 0.127308 0.130722 0.145831 0.149587 0.142074 0.145831 0.160255 0.164354 0.145831 0.149587 0.164354 0.168452 0.160255 0.164354 0.181516 0.186352 0.164354 0.168452 0.186352 0.191189 0.181516 0.186352 0.202777 0.208351 0.186352 0.191189 0.208351 0.213925 0.168452 0.174736 0.191189 0.197922 0.174736 0.181021 0.197922 0.204654 0.191189 0.197922 0.213925 0.221107 0.197922 0.204654 0.221107 0.228288 0.197043 0.207444 0.221609 0.232371 0.207444 0.217844 0.232371 0.243133 0.221609 0.232371 0.246175 0.257299 0.232371 0.243133 0.257299 0.268422 0.217828 0.243116 0.231751 0.257241 0.243116 0.268405 0.257241 0.282732 0.231751 0.257241 0.245674 0.271366 0.257241 0.282732 0.271366 0.297059 0.217844 0.231765 0.243133 0.257259 0.231765 0.245685 0.257259 0.271384 0.243133 0.257259 0.268422 0.282752 0.257259 0.271384 0.282752 0.297083 0.280733 0.306174 0.301354 0.326809 0.306174 0.331614 0.326809 0.352264 0.301354 0.326809 0.321974 0.347444 0.326809 0.352264 0.347444 0.372914 0.280736 0.301355 0.306192 0.326852 0.301355 0.321974 0.326852 0.347512 0.306192 0.326852 0.331648 0.352349 0.326852 0.347512 0.352349 0.373049 0.321974 0.347444 0.347512 0.372483 0.347444 0.372914 0.372483 0.397455 0.347512 0.372483 0.373049 0.397523 0.372483 0.397455 0.397523 0.421996 0.0702758 0.0819732 0.0730086 0.0848234 0.0819732 0.0936706 0.0848234 0.0966383 0.0730086 0.0848234 0.0757413 0.0876736 0.0848234 0.0966383 0.0876736 0.0996059 0.0936706 0.108768 0.0966383 0.11196 0.108768 0.123866 0.11196 0.127282 0.0966383 0.11196 0.0996059 0.115152 0.11196 0.127282 0.115152 0.130697 0.0757413 0.0876736 0.0800997 0.0922238 0.0876736 0.0996059 0.0922238 0.104348 0.0800997 0.0922238 0.0844581 0.096774 0.0922238 0.104348 0.096774 0.10909 0.0996059 0.115152 0.104348 0.120186 0.115152 0.130697 0.120186 0.136025 0.104348 0.120186 0.10909 0.125221 0.120186 0.136025 0.125221 0.141352 0.0844581 0.096774 0.0913158 0.103594 0.096774 0.10909 0.103594 0.115872 0.0913158 0.103594 0.0981735 0.110414 0.103594 0.115872 0.110414 0.122654 0.10909 0.125221 0.115872 0.132252 0.125221 0.141352 0.132252 0.148632 0.115872 0.132252 0.122654 0.139282 0.132252 0.148632 0.139282 0.155911 0.0981735 0.110414 0.107475 0.119914 0.110414 0.122654 0.119914 0.132353 0.107475 0.119914 0.116777 0.129414 0.119914 0.132353 0.129414 0.142051 0.122654 0.139282 0.132353 0.149161 0.139282 0.155911 0.149161 0.165969 0.132353 0.149161 0.142051 0.159039 0.149161 0.165969 0.159039 0.176028 0.0702964 0.0730261 0.081991 0.0848413 0.0730261 0.0757557 0.0848413 0.0876915 0.081991 0.0848413 0.0936856 0.0966565 0.0848413 0.0876915 0.0966565 0.0996274 0.0757557 0.0801125 0.0876915 0.09224 0.0801125 0.0844693 0.09224 0.0967884 0.0876915 0.09224 0.0996274 0.104367 0.09224 0.0967884 0.104367 0.109107 0.0936856 0.0966565 0.108789 0.111982 0.0966565 0.0996274 0.111982 0.115175 0.108789 0.111982 0.123893 0.127308 0.111982 0.115175 0.127308 0.130722 0.0996274 0.104367 0.115175 0.120208 0.104367 0.109107 0.120208 0.125241 0.115175 0.120208 0.130722 0.136049 0.120208 0.125241 0.136049 0.141376 0.0844693 0.0913245 0.0967884 0.103606 0.0913245 0.0981796 0.103606 0.110423 0.0967884 0.103606 0.109107 0.115887 0.103606 0.110423 0.115887 0.122666 0.0981796 0.107478 0.110423 0.11992 0.107478 0.116777 0.11992 0.129417 0.110423 0.11992 0.122666 0.132362 0.11992 0.129417 0.132362 0.142058 0.109107 0.115887 0.125241 0.13227 0.115887 0.122666 0.13227 0.139298 0.125241 0.13227 0.141376 0.148652 0.13227 0.139298 0.148652 0.155929 0.329394 0.36161 0.343478 0.374569 0.36161 0.396234 0.374569 0.410843 0.343478 0.374569 0.358207 0.389246 0.374569 0.410843 0.389246 0.426263 0.122666 0.132362 0.139298 0.149173 0.132362 0.142058 0.149173 0.159049 0.139298 0.149173 0.155929 0.165984 0.149173 0.159049 0.165984 0.17604 0.358207 0.389246 0.374684 0.405794 0.374684 0.405794 0.39116 0.421696 0.116777 0.129414 0.129417 0.142281 0.129414 0.142051 0.142281 0.155144 0.129417 0.142281 0.142058 0.155147 0.142281 0.155144 0.155147 0.168236 0.142051 0.159039 0.155144 0.172369 0.159039 0.176028 0.172369 0.189593 0.155144 0.172369 0.168236 0.185698 0.172369 0.189593 0.185698 0.203159 0.142058 0.155147 0.159049 0.172375 0.155147 0.168236 0.172375 0.1857 0.159049 0.172375 0.17604 0.189602 0.172375 0.1857 0.189602 0.203164 0.0266372 0.0331163 0.0299695 0.0363224 0.0331163 0.0395954 0.0363224 0.0426753 0.0299695 0.0363224 0.0333017 0.0395284 0.0363224 0.0426753 0.0395284 0.0457551 0.329411 0.343497 0.361625 0.374587 0.343497 0.358236 0.374587 0.389262 0.361625 0.374587 0.396249 0.410861 0.374587 0.389262 0.410861 0.426269 0.358236 0.374756 0.389262 0.405825 0.374756 0.391276 0.405825 0.421856 0.405825 0.421856 0.443204 0.461107 0.0395954 0.0507168 0.0426753 0.0533613 0.0507168 0.0618383 0.0533613 0.0640474 0.0426753 0.0533613 0.0457551 0.0560058 0.0533613 0.0640474 0.0560058 0.0662565 0.0266435 0.0299764 0.0331241 0.0363313 0.0299764 0.0333093 0.0363313 0.0395384 0.0331241 0.0363313 0.0396047 0.0426862 0.0363313 0.0395384 0.0426862 0.0457676 0.0396047 0.0426862 0.0507312 0.0533774 0.0426862 0.0457676 0.0533774 0.0560235 0.0507312 0.0533774 0.0618577 0.0640685 0.0533774 0.0560235 0.0640685 0.0662794 0 0.00307847 0.0111068 0.0142322 0.00307847 0.0184708 0.0142322 0.0273047 0.0111068 0.0142322 0.0170623 0.0231088 0.0142322 0.0273047 0.0231088 0.0332092 0 0.0111085 0.00307847 0.0142345 0.0111085 0.0170656 0.0142345 0.0231133 0.00307847 0.0142345 0.0184708 0.027308 0.0142345 0.0231133 0.027308 0.0332156 0.46747 0.486817 0.475052 0.494516 0.486817 0.506164 0.494516 0.51398 0.475052 0.494516 0.482635 0.502215 0.494516 0.51398 0.502215 0.521796 0.385198 0.407088 0.392451 0.409681 0.407088 0.411487 0.409681 0.419427 0.392451 0.409681 0.399705 0.416934 0.409681 0.419427 0.416934 0.426272 0.399705 0.416934 0.405766 0.42302 0.416934 0.426272 0.42302 0.440283 0.405766 0.42302 0.411826 0.429608 0.42302 0.440283 0.429608 0.447736 0.426272 0.454082 0.440283 0.451019 0.454082 0.46485 0.451019 0.472546 0.440283 0.451019 0.447736 0.459621 0.451019 0.472546 0.459621 0.480242 0.411487 0.437305 0.419427 0.444762 0.437305 0.449457 0.444762 0.457153 0.419427 0.444762 0.426272 0.454082 0.444762 0.457153 0.454082 0.46485 0.447736 0.459621 0.454808 0.467039 0.459621 0.480242 0.467039 0.487938 0.454808 0.467039 0.461957 0.474442 0.467039 0.487938 0.474442 0.495634 0.482635 0.502215 0.489817 0.509462 0.502215 0.521796 0.509462 0.529107 0.489817 0.509462 0.496998 0.516708 0.509462 0.529107 0.516708 0.536419 0.461957 0.474442 0.469255 0.481859 0.474442 0.495634 0.481859 0.503331 0.469255 0.481859 0.47662 0.489288 0.481859 0.503331 0.489288 0.511027 0.513062 0.53267 0.521363 0.54083 0.53267 0.552278 0.54083 0.560296 0.521363 0.54083 0.529663 0.548989 0.54083 0.560296 0.548989 0.568314 0.47662 0.489288 0.483986 0.496737 0.489288 0.511027 0.496737 0.518723 0.483986 0.496737 0.491427 0.504196 0.496737 0.518723 0.504196 0.526419 0.546072 0.56528 0.554551 0.573425 0.56528 0.584488 0.573425 0.59313 0.554551 0.573425 0.56303 0.581317 0.573425 0.59313 0.581317 0.601484 0.491427 0.504196 0.498805 0.511671 0.504196 0.526419 0.511671 0.534115 0.498805 0.511671 0.506164 0.51919 0.511671 0.534115 0.51919 0.541812 0.529663 0.548989 0.537868 0.557135 0.548989 0.568314 0.557135 0.576401 0.537868 0.557135 0.546072 0.56528 0.557135 0.576401 0.56528 0.584488 0.38521 0.392463 0.407097 0.40969 0.392463 0.399717 0.40969 0.416943 0.407097 0.40969 0.411494 0.419434 0.40969 0.416943 0.419434 0.426278 0.399717 0.405777 0.416943 0.423029 0.405777 0.411837 0.423029 0.429616 0.416943 0.423029 0.426278 0.440289 0.423029 0.429616 0.440289 0.447742 0.426278 0.440289 0.454085 0.451022 0.440289 0.447742 0.451022 0.459623 0.454085 0.451022 0.46485 0.472546 0.451022 0.459623 0.472546 0.480242 0.467485 0.475067 0.486829 0.494529 0.475067 0.482649 0.494529 0.502229 0.486829 0.494529 0.506172 0.513991 0.494529 0.502229 0.513991 0.521809 0.411494 0.419434 0.437309 0.444765 0.419434 0.426278 0.444765 0.454085 0.437309 0.444765 0.449457 0.457153 0.444765 0.454085 0.457153 0.46485 0.447742 0.454813 0.459623 0.467041 0.454813 0.461961 0.467041 0.474444 0.459623 0.467041 0.480242 0.487938 0.467041 0.474444 0.487938 0.495634 0.461961 0.46926 0.474444 0.481861 0.46926 0.476625 0.481861 0.48929 0.474444 0.481861 0.495634 0.503331 0.481861 0.48929 0.503331 0.511027 0.482649 0.489884 0.502229 0.5095 0.489884 0.497119 0.5095 0.51677 0.502229 0.5095 0.521809 0.529115 0.5095 0.51677 0.529115 0.536422 0.497119 0.505203 0.51677 0.524772 0.505203 0.513287 0.524772 0.532773 0.51677 0.524772 0.536422 0.544341 0.524772 0.532773 0.544341 0.55226 0.476625 0.48399 0.48929 0.496739 0.48399 0.491432 0.496739 0.504198 0.48929 0.496739 0.511027 0.518723 0.496739 0.504198 0.518723 0.526419 0.491432 0.498811 0.504198 0.511675 0.498811 0.506172 0.511675 0.519195 0.504198 0.511675 0.526419 0.534115 0.511675 0.519195 0.534115 0.541812 0.332414 0.346005 0.337772 0.351682 0.346005 0.359596 0.351682 0.365593 0.337772 0.351682 0.34313 0.357359 0.351682 0.365593 0.357359 0.371589 0.506164 0.51919 0.51398 0.526738 0.51919 0.541812 0.526738 0.549508 0.51398 0.526738 0.521796 0.53435 0.526738 0.549508 0.53435 0.557204 0.34313 0.357359 0.348829 0.363611 0.357359 0.371589 0.363611 0.378393 0.348829 0.363611 0.354528 0.369863 0.363611 0.378393 0.369863 0.385198 0.521796 0.53435 0.529107 0.542076 0.53435 0.557204 0.542076 0.5649 0.529107 0.542076 0.536419 0.549823 0.542076 0.5649 0.549823 0.572596 0.269456 0.278211 0.274829 0.284006 0.278211 0.286966 0.284006 0.293184 0.274829 0.284006 0.280201 0.289801 0.284006 0.293184 0.289801 0.299401 0.536419 0.549823 0.544388 0.557497 0.549823 0.572596 0.557497 0.580293 0.544388 0.557497 0.552278 0.565195 0.557497 0.580293 0.565195 0.587989 0.280201 0.289801 0.28513 0.2952 0.289801 0.299401 0.2952 0.305269 0.28513 0.2952 0.290059 0.300598 0.2952 0.305269 0.300598 0.311137 0.552278 0.565195 0.560296 0.572922 0.565195 0.587989 0.572922 0.595685 0.560296 0.572922 0.568314 0.580702 0.572922 0.595685 0.580702 0.603381 0.332433 0.337789 0.346022 0.351698 0.337789 0.343145 0.351698 0.357373 0.346022 0.351698 0.35961 0.365606 0.351698 0.357373 0.365606 0.371602 0.568314 0.580702 0.576401 0.58852 0.580702 0.603381 0.58852 0.611077 0.576401 0.58852 0.584488 0.596417 0.58852 0.611077 0.596417