# vtk DataFile Version 3.0
#This file was generated by the deal.II library on 2015/5/19 at 10:59:21
ASCII
DATASET UNSTRUCTURED_GRID

POINTS 64 double
-1 -1 0
-0.5 -1 0
-1 -0.5 0
-0.5 -0.5 0
-0.5 -1 0
0 -1 0
-0.5 -0.5 0
0 -0.5 0
-1 -0.5 0
-0.5 -0.5 0
-1 0 0
-0.5 0 0
-0.5 -0.5 0
0 -0.5 0
-0.5 0 0
0 0 0
0 -1 0
0.5 -1 0
0 -0.5 0
0.5 -0.5 0
0.5 -1 0
1 -1 0
0.5 -0.5 0
1 -0.5 0
0 -0.5 0
0.5 -0.5 0
0 0 0
0.5 0 0
0.5 -0.5 0
1 -0.5 0
0.5 0 0
1 0 0
-1 0 0
-0.5 0 0
-1 0.5 0
-0.5 0.5 0
-0.5 0 0
0 0 0
-0.5 0.5 0
0 0.5 0
-1 0.5 0
-0.5 0.5 0
-1 1 0
-0.5 1 0
-0.5 0.5 0
0 0.5 0
-0.5 1 0
0 1 0
0 0 0
0.5 0 0
0 0.5 0
0.5 0.5 0
0.5 0 0
1 0 0
0.5 0.5 0
1 0.5 0
0 0.5 0
0.5 0.5 0
0 1 0
0.5 1 0
0.5 0.5 0
1 0.5 0
0.5 1 0
1 1 0

CELLS 16 80
4	0	1	3	2
4	4	5	7	6
4	8	9	11	10
4	12	13	15	14
4	16	17	19	18
4	20	21	23	22
4	24	25	27	26
4	28	29	31	30
4	32	33	35	34
4	36	37	39	38
4	40	41	43	42
4	44	45	47	46
4	48	49	51	50
4	52	53	55	54
4	56	57	59	58
4	60	61	63	62

CELL_TYPES 16
 9 9 9 9 9 9 9 9 9 9 9 9 9 9 9 9
POINT_DATA 64
SCALARS V double 1
LOOKUP_TABLE default
1.99401 1.74476 1.74476 -0.162254 1.74476 1.49551 -0.162254 -0.115909 1.74476 -0.162254 1.49551 -0.115909 -0.162254 -0.115909 -0.115909 -0.0702859 1.49551 1.24626 -0.115909 -0.0833288 1.24626 0.997005 -0.0833288 0.747753 -0.115909 -0.0833288 -0.0702859 -0.0400075 -0.0833288 0.747753 -0.0400075 0.498502 1.49551 -0.115909 1.24626 -0.0833288 -0.115909 -0.0702859 -0.0833288 -0.0400075 1.24626 -0.0833288 0.997005 0.747753 -0.0833288 -0.0400075 0.747753 0.498502 -0.0702859 -0.0400075 -0.0400075 -0.00440396 -0.0400075 0.498502 -0.00440396 0.249251 -0.0400075 -0.00440396 0.498502 0.249251 -0.00440396 0.249251 0.249251 0 
