# vtk DataFile Version 3.0
#This file was generated by the deal.II library on 2015/5/12 at 16: 3:47
ASCII
DATASET UNSTRUCTURED_GRID

POINTS 2116 double
0 0 0
5 0 0
0 5 0
5 5 0
5 0 0
10 0 0
5 5 0
10 5 0
0 5 0
5 5 0
0 10 0
5 10 0
5 5 0
10 5 0
5 10 0
10 10 0
0 -5 0
2.5 -5 0
0 -2.5 0
2.5 -2.5 0
2.5 -5 0
5 -5 0
2.5 -2.5 0
5 -2.5 0
0 -2.5 0
2.5 -2.5 0
0 0 0
2.5 0 0
2.5 -2.5 0
5 -2.5 0
2.5 0 0
5 0 0
5 -5 0
7.5 -5 0
5 -2.5 0
7.5 -2.5 0
7.5 -5 0
10 -5 0
7.5 -2.5 0
10 -2.5 0
5 -2.5 0
7.5 -2.5 0
5 0 0
7.5 0 0
7.5 -2.5 0
10 -2.5 0
7.5 0 0
10 0 0
-5 0 0
-2.5 0 0
-5 2.5 0
-2.5 2.5 0
-2.5 0 0
0 0 0
-2.5 2.5 0
0 2.5 0
-5 2.5 0
-2.5 2.5 0
-5 5 0
-2.5 5 0
-2.5 2.5 0
0 2.5 0
-2.5 5 0
0 5 0
7.5 -7.5 0
10 -7.5 0
7.5 -5 0
10 -5 0
-5 -5 0
-2.5 -5 0
-5 -2.5 0
-2.5 -2.5 0
-2.5 -5 0
0 -5 0
-2.5 -2.5 0
0 -2.5 0
-5 -2.5 0
-2.5 -2.5 0
-5 0 0
-2.5 0 0
-2.5 -2.5 0
0 -2.5 0
-2.5 0 0
0 0 0
-5 5 0
-2.5 5 0
-5 7.5 0
-2.5 7.5 0
-2.5 5 0
0 5 0
-2.5 7.5 0
0 7.5 0
-5 7.5 0
-2.5 7.5 0
-5 10 0
-2.5 10 0
-2.5 7.5 0
0 7.5 0
-2.5 10 0
0 10 0
2.5 -7.5 0
3.75 -7.5 0
2.5 -6.25 0
3.75 -6.25 0
3.75 -7.5 0
5 -7.5 0
3.75 -6.25 0
5 -6.25 0
2.5 -6.25 0
3.75 -6.25 0
2.5 -5 0
3.75 -5 0
3.75 -6.25 0
5 -6.25 0
3.75 -5 0
5 -5 0
-7.5 -7.5 0
-6.25 -7.5 0
-7.5 -6.25 0
-6.25 -6.25 0
-6.25 -7.5 0
-5 -7.5 0
-6.25 -6.25 0
-5 -6.25 0
-7.5 -6.25 0
-6.25 -6.25 0
-7.5 -5 0
-6.25 -5 0
-6.25 -6.25 0
-5 -6.25 0
-6.25 -5 0
-5 -5 0
0 -7.5 0
1.25 -7.5 0
0 -6.25 0
1.25 -6.25 0
1.25 -7.5 0
2.5 -7.5 0
1.25 -6.25 0
2.5 -6.25 0
0 -6.25 0
1.25 -6.25 0
0 -5 0
1.25 -5 0
1.25 -6.25 0
2.5 -6.25 0
1.25 -5 0
2.5 -5 0
-7.5 0 0
-6.25 0 0
-7.5 1.25 0
-6.25 1.25 0
-6.25 0 0
-5 0 0
-6.25 1.25 0
-5 1.25 0
-7.5 1.25 0
-6.25 1.25 0
-7.5 2.5 0
-6.25 2.5 0
-6.25 1.25 0
-5 1.25 0
-6.25 2.5 0
-5 2.5 0
-5 -7.5 0
-3.75 -7.5 0
-5 -6.25 0
-3.75 -6.25 0
-3.75 -7.5 0
-2.5 -7.5 0
-3.75 -6.25 0
-2.5 -6.25 0
-5 -6.25 0
-3.75 -6.25 0
-5 -5 0
-3.75 -5 0
-3.75 -6.25 0
-2.5 -6.25 0
-3.75 -5 0
-2.5 -5 0
5 -7.5 0
6.25 -7.5 0
5 -6.25 0
6.25 -6.25 0
6.25 -7.5 0
7.5 -7.5 0
6.25 -6.25 0
7.5 -6.25 0
5 -6.25 0
6.25 -6.25 0
5 -5 0
6.25 -5 0
6.25 -6.25 0
7.5 -6.25 0
6.25 -5 0
7.5 -5 0
-7.5 2.5 0
-6.25 2.5 0
-7.5 3.75 0
-6.25 3.75 0
-6.25 2.5 0
-5 2.5 0
-6.25 3.75 0
-5 3.75 0
-7.5 3.75 0
-6.25 3.75 0
-7.5 5 0
-6.25 5 0
-6.25 3.75 0
-5 3.75 0
-6.25 5 0
-5 5 0
-7.5 -5 0
-6.25 -5 0
-7.5 -3.75 0
-6.25 -3.75 0
-6.25 -5 0
-5 -5 0
-6.25 -3.75 0
-5 -3.75 0
-7.5 -3.75 0
-6.25 -3.75 0
-7.5 -2.5 0
-6.25 -2.5 0
-6.25 -3.75 0
-5 -3.75 0
-6.25 -2.5 0
-5 -2.5 0
-10 5 0
-8.75 5 0
-10 6.25 0
-8.75 6.25 0
-8.75 5 0
-7.5 5 0
-8.75 6.25 0
-7.5 6.25 0
-10 6.25 0
-8.75 6.25 0
-10 7.5 0
-8.75 7.5 0
6.25 -10 0
7.5 -10 0
6.25 -8.75 0
7.5 -8.75 0
7.5 -10 0
8.75 -10 0
7.5 -8.75 0
8.75 -8.75 0
8.75 -10 0
10 -10 0
8.75 -8.75 0
10 -8.75 0
7.5 -8.75 0
8.75 -8.75 0
7.5 -7.5 0
8.75 -7.5 0
8.75 -8.75 0
10 -8.75 0
8.75 -7.5 0
10 -7.5 0
-7.5 5 0
-6.25 5 0
-7.5 6.25 0
-6.25 6.25 0
-6.25 5 0
-5 5 0
-6.25 6.25 0
-5 6.25 0
-6.25 6.25 0
-5 6.25 0
-6.25 7.5 0
-5 7.5 0
-2.5 -7.5 0
-1.25 -7.5 0
-2.5 -6.25 0
-1.25 -6.25 0
-1.25 -7.5 0
0 -7.5 0
-1.25 -6.25 0
0 -6.25 0
-2.5 -6.25 0
-1.25 -6.25 0
-2.5 -5 0
-1.25 -5 0
-1.25 -6.25 0
0 -6.25 0
-1.25 -5 0
0 -5 0
-7.5 -2.5 0
-6.25 -2.5 0
-7.5 -1.25 0
-6.25 -1.25 0
-6.25 -2.5 0
-5 -2.5 0
-6.25 -1.25 0
-5 -1.25 0
-7.5 -1.25 0
-6.25 -1.25 0
-7.5 0 0
-6.25 0 0
-6.25 -1.25 0
-5 -1.25 0
-6.25 0 0
-5 0 0
-10 7.5 0
-8.75 7.5 0
-10 8.75 0
-8.75 8.75 0
-8.75 7.5 0
-7.5 7.5 0
-8.75 8.75 0
-7.5 8.75 0
-10 8.75 0
-8.75 8.75 0
-10 10 0
-8.75 10 0
-8.75 8.75 0
-7.5 8.75 0
-8.75 10 0
-7.5 10 0
-7.5 7.5 0
-6.25 7.5 0
-7.5 8.75 0
-6.25 8.75 0
-6.25 7.5 0
-5 7.5 0
-6.25 8.75 0
-5 8.75 0
-7.5 8.75 0
-6.25 8.75 0
-7.5 10 0
-6.25 10 0
-6.25 8.75 0
-5 8.75 0
-6.25 10 0
-5 10 0
-7.5 -8.75 0
-6.875 -8.75 0
-7.5 -8.125 0
-6.875 -8.125 0
-6.875 -8.75 0
-6.25 -8.75 0
-6.875 -8.125 0
-6.25 -8.125 0
-7.5 -8.125 0
-6.875 -8.125 0
-7.5 -7.5 0
-6.875 -7.5 0
-6.875 -8.125 0
-6.25 -8.125 0
-6.875 -7.5 0
-6.25 -7.5 0
0 -8.75 0
0.625 -8.75 0
0 -8.125 0
0.625 -8.125 0
0.625 -8.75 0
1.25 -8.75 0
0.625 -8.125 0
1.25 -8.125 0
0 -8.125 0
0.625 -8.125 0
0 -7.5 0
0.625 -7.5 0
0.625 -8.125 0
1.25 -8.125 0
0.625 -7.5 0
1.25 -7.5 0
1.25 -8.75 0
1.875 -8.75 0
1.25 -8.125 0
1.875 -8.125 0
1.875 -8.75 0
2.5 -8.75 0
1.875 -8.125 0
2.5 -8.125 0
1.25 -8.125 0
1.875 -8.125 0
1.25 -7.5 0
1.875 -7.5 0
1.875 -8.125 0
2.5 -8.125 0
1.875 -7.5 0
2.5 -7.5 0
-6.25 -8.75 0
-5.625 -8.75 0
-6.25 -8.125 0
-5.625 -8.125 0
-5.625 -8.75 0
-5 -8.75 0
-5.625 -8.125 0
-5 -8.125 0
-6.25 -8.125 0
-5.625 -8.125 0
-6.25 -7.5 0
-5.625 -7.5 0
-5.625 -8.125 0
-5 -8.125 0
-5.625 -7.5 0
-5 -7.5 0
-8.75 0 0
-8.125 0 0
-8.75 0.625 0
-8.125 0.625 0
-8.125 0 0
-7.5 0 0
-8.125 0.625 0
-7.5 0.625 0
-8.75 0.625 0
-8.125 0.625 0
-8.75 1.25 0
-8.125 1.25 0
-8.125 0.625 0
-7.5 0.625 0
-8.125 1.25 0
-7.5 1.25 0
-8.75 1.25 0
-8.125 1.25 0
-8.75 1.875 0
-8.125 1.875 0
-8.125 1.25 0
-7.5 1.25 0
-8.125 1.875 0
-7.5 1.875 0
-8.75 1.875 0
-8.125 1.875 0
-8.75 2.5 0
-8.125 2.5 0
-8.125 1.875 0
-7.5 1.875 0
-8.125 2.5 0
-7.5 2.5 0
-8.75 -7.5 0
-8.125 -7.5 0
-8.75 -6.875 0
-8.125 -6.875 0
-8.125 -7.5 0
-7.5 -7.5 0
-8.125 -6.875 0
-7.5 -6.875 0
-8.75 -6.875 0
-8.125 -6.875 0
-8.75 -6.25 0
-8.125 -6.25 0
-8.125 -6.875 0
-7.5 -6.875 0
-8.125 -6.25 0
-7.5 -6.25 0
-8.75 -6.25 0
-8.125 -6.25 0
-8.75 -5.625 0
-8.125 -5.625 0
-8.125 -6.25 0
-7.5 -6.25 0
-8.125 -5.625 0
-7.5 -5.625 0
-8.75 -5.625 0
-8.125 -5.625 0
-8.75 -5 0
-8.125 -5 0
-8.125 -5.625 0
-7.5 -5.625 0
-8.125 -5 0
-7.5 -5 0
-5 -8.75 0
-4.375 -8.75 0
-5 -8.125 0
-4.375 -8.125 0
-4.375 -8.75 0
-3.75 -8.75 0
-4.375 -8.125 0
-3.75 -8.125 0
-5 -8.125 0
-4.375 -8.125 0
-5 -7.5 0
-4.375 -7.5 0
-4.375 -8.125 0
-3.75 -8.125 0
-4.375 -7.5 0
-3.75 -7.5 0
-8.75 -8.75 0
-8.125 -8.75 0
-8.75 -8.125 0
-8.125 -8.125 0
-8.125 -8.75 0
-7.5 -8.75 0
-8.125 -8.125 0
-7.5 -8.125 0
-8.75 -8.125 0
-8.125 -8.125 0
-8.75 -7.5 0
-8.125 -7.5 0
-8.125 -8.125 0
-7.5 -8.125 0
-8.125 -7.5 0
-7.5 -7.5 0
-3.75 -8.75 0
-3.125 -8.75 0
-3.75 -8.125 0
-3.125 -8.125 0
-3.125 -8.75 0
-2.5 -8.75 0
-3.125 -8.125 0
-2.5 -8.125 0
-3.75 -8.125 0
-3.125 -8.125 0
-3.75 -7.5 0
-3.125 -7.5 0
-3.125 -8.125 0
-2.5 -8.125 0
-3.125 -7.5 0
-2.5 -7.5 0
-8.75 2.5 0
-8.125 2.5 0
-8.75 3.125 0
-8.125 3.125 0
-8.125 2.5 0
-7.5 2.5 0
-8.125 3.125 0
-7.5 3.125 0
-8.125 3.125 0
-7.5 3.125 0
-8.125 3.75 0
-7.5 3.75 0
-8.75 -5 0
-8.125 -5 0
-8.75 -4.375 0
-8.125 -4.375 0
-8.125 -5 0
-7.5 -5 0
-8.125 -4.375 0
-7.5 -4.375 0
-8.75 -4.375 0
-8.125 -4.375 0
-8.75 -3.75 0
-8.125 -3.75 0
-8.125 -4.375 0
-7.5 -4.375 0
-8.125 -3.75 0
-7.5 -3.75 0
1.25 -10 0
1.875 -10 0
1.25 -9.375 0
1.875 -9.375 0
1.875 -10 0
2.5 -10 0
1.875 -9.375 0
2.5 -9.375 0
1.25 -9.375 0
1.875 -9.375 0
1.25 -8.75 0
1.875 -8.75 0
-10 3.75 0
-9.375 3.75 0
-10 4.375 0
-9.375 4.375 0
-10 4.375 0
-9.375 4.375 0
-10 5 0
-9.375 5 0
-9.375 4.375 0
-8.75 4.375 0
-9.375 5 0
-8.75 5 0
-8.75 3.75 0
-8.125 3.75 0
-8.75 4.375 0
-8.125 4.375 0
-8.125 3.75 0
-7.5 3.75 0
-8.125 4.375 0
-7.5 4.375 0
-8.75 4.375 0
-8.125 4.375 0
-8.75 5 0
-8.125 5 0
-8.125 4.375 0
-7.5 4.375 0
-8.125 5 0
-7.5 5 0
2.5 -8.75 0
3.125 -8.75 0
2.5 -8.125 0
3.125 -8.125 0
3.125 -8.75 0
3.75 -8.75 0
3.125 -8.125 0
3.75 -8.125 0
2.5 -8.125 0
3.125 -8.125 0
2.5 -7.5 0
3.125 -7.5 0
3.125 -8.125 0
3.75 -8.125 0
3.125 -7.5 0
3.75 -7.5 0
5 -8.125 0
5.625 -8.125 0
5 -7.5 0
5.625 -7.5 0
5.625 -8.125 0
6.25 -8.125 0
5.625 -7.5 0
6.25 -7.5 0
-10 1.25 0
-9.375 1.25 0
-10 1.875 0
-9.375 1.875 0
-9.375 1.25 0
-8.75 1.25 0
-9.375 1.875 0
-8.75 1.875 0
-10 1.875 0
-9.375 1.875 0
-10 2.5 0
-9.375 2.5 0
5 -10 0
5.625 -10 0
5 -9.375 0
5.625 -9.375 0
5.625 -10 0
6.25 -10 0
5.625 -9.375 0
6.25 -9.375 0
5.625 -9.375 0
6.25 -9.375 0
5.625 -8.75 0
6.25 -8.75 0
-2.5 -8.75 0
-1.875 -8.75 0
-2.5 -8.125 0
-1.875 -8.125 0
-1.875 -8.75 0
-1.25 -8.75 0
-1.875 -8.125 0
-1.25 -8.125 0
-2.5 -8.125 0
-1.875 -8.125 0
-2.5 -7.5 0
-1.875 -7.5 0
-1.875 -8.125 0
-1.25 -8.125 0
-1.875 -7.5 0
-1.25 -7.5 0
3.75 -10 0
4.375 -10 0
3.75 -9.375 0
4.375 -9.375 0
4.375 -10 0
5 -10 0
4.375 -9.375 0
5 -9.375 0
3.75 -9.375 0
4.375 -9.375 0
3.75 -8.75 0
4.375 -8.75 0
4.375 -9.375 0
5 -9.375 0
4.375 -8.75 0
5 -8.75 0
-1.25 -8.75 0
-0.625 -8.75 0
-1.25 -8.125 0
-0.625 -8.125 0
-0.625 -8.75 0
0 -8.75 0
-0.625 -8.125 0
0 -8.125 0
-1.25 -8.125 0
-0.625 -8.125 0
-1.25 -7.5 0
-0.625 -7.5 0
-0.625 -8.125 0
0 -8.125 0
-0.625 -7.5 0
0 -7.5 0
-8.75 -3.75 0
-8.125 -3.75 0
-8.75 -3.125 0
-8.125 -3.125 0
-8.125 -3.75 0
-7.5 -3.75 0
-8.125 -3.125 0
-7.5 -3.125 0
-8.75 -3.125 0
-8.125 -3.125 0
-8.75 -2.5 0
-8.125 -2.5 0
-8.125 -3.125 0
-7.5 -3.125 0
-8.125 -2.5 0
-7.5 -2.5 0
-8.75 -2.5 0
-8.125 -2.5 0
-8.75 -1.875 0
-8.125 -1.875 0
-8.125 -2.5 0
-7.5 -2.5 0
-8.125 -1.875 0
-7.5 -1.875 0
-8.75 -1.875 0
-8.125 -1.875 0
-8.75 -1.25 0
-8.125 -1.25 0
-8.125 -1.875 0
-7.5 -1.875 0
-8.125 -1.25 0
-7.5 -1.25 0
-8.75 -1.25 0
-8.125 -1.25 0
-8.75 -0.625 0
-8.125 -0.625 0
-8.125 -1.25 0
-7.5 -1.25 0
-8.125 -0.625 0
-7.5 -0.625 0
-8.75 -0.625 0
-8.125 -0.625 0
-8.75 0 0
-8.125 0 0
-8.125 -0.625 0
-7.5 -0.625 0
-8.125 0 0
-7.5 0 0
3.75 -8.75 0
4.375 -8.75 0
3.75 -8.125 0
4.375 -8.125 0
4.375 -8.75 0
5 -8.75 0
4.375 -8.125 0
5 -8.125 0
3.75 -8.125 0
4.375 -8.125 0
3.75 -7.5 0
4.375 -7.5 0
4.375 -8.125 0
5 -8.125 0
4.375 -7.5 0
5 -7.5 0
-8.75 6.25 0
-8.125 6.25 0
-8.75 6.875 0
-8.125 6.875 0
-8.125 6.25 0
-7.5 6.25 0
-8.125 6.875 0
-7.5 6.875 0
-8.75 6.875 0
-8.125 6.875 0
-8.75 7.5 0
-8.125 7.5 0
-8.125 6.875 0
-7.5 6.875 0
-8.125 7.5 0
-7.5 7.5 0
6.25 -8.75 0
6.875 -8.75 0
6.25 -8.125 0
6.875 -8.125 0
6.875 -8.75 0
7.5 -8.75 0
6.875 -8.125 0
7.5 -8.125 0
6.25 -8.125 0
6.875 -8.125 0
6.25 -7.5 0
6.875 -7.5 0
6.875 -8.125 0
7.5 -8.125 0
6.875 -7.5 0
7.5 -7.5 0
-7.5 6.25 0
-6.875 6.25 0
-7.5 6.875 0
-6.875 6.875 0
-6.875 6.25 0
-6.25 6.25 0
-6.875 6.875 0
-6.25 6.875 0
-7.5 6.875 0
-6.875 6.875 0
-7.5 7.5 0
-6.875 7.5 0
-6.875 6.875 0
-6.25 6.875 0
-6.875 7.5 0
-6.25 7.5 0
-10 -10 0
-9.6875 -10 0
-10 -9.6875 0
-9.6875 -9.6875 0
-9.6875 -10 0
-9.375 -10 0
-9.6875 -9.6875 0
-9.375 -9.6875 0
[...]
POINT_DATA 2116
SCALARS V double 1
LOOKUP_TABLE default
0.0166353 -0.00787601 -0.0256938 0.00719392 -0.00787601 0 0.00719392 0 -0.0256938 0.00719392 0 0 0.00719392 0 0 0 0.000773284 0.00931935 0.0095269 0.0075425 0.00931935 0.0233093 0.0075425 0.00602503 0.0095269 0.0075425 0.0166353 0.00437962 0.0075425 0.00602503 0.00437962 -0.00787601 0.0233093 -0.0004882 0.00602503 0.00599569 -0.0004882 0 0.00599569 0 0.00602503 0.00599569 -0.00787601 -0.003938 0.00599569 0 -0.003938 0 -0.00387494 0.00693542 0.0589332 0.0298465 0.00693542 0.0166353 0.0298465 -0.00452926 0.0589332 0.0298465 0.116746 0.0489606 0.0298465 -0.00452926 0.0489606 -0.0256938 -0.44462 0 -0.0004882 0 0.00771716 0.00300816 0.000335513 0.00609176 0.00300816 0.000773284 0.00609176 0.0095269 0.000335513 0.00609176 -0.00387494 0.00693542 0.00609176 0.0095269 0.00693542 0.0166353 0.116746 0.0489606 0.0549062 0.025593 0.0489606 -0.0256938 0.025593 -0.0128469 0.0549062 0.025593 0 0 0.025593 -0.0128469 0 0 0.0184881 0.17953 0.0142257 0.0801307 0.17953 0.18914 0.0801307 0.146353 0.0142257 0.0801307 0.00931935 0.0163143 0.0801307 0.146353 0.0163143 0.0233093 -0.00145207 -0.0103944 -0.0108363 -0.00503786 -0.0103944 -0.00434454 -0.00503786 0.000888244 -0.0108363 -0.00503786 -0.00517112 0.000401266 -0.00503786 0.000888244 0.000401266 0.00771716 0.0040533 0.00406951 0.00164306 0.00376191 0.00406951 0.0184881 0.00376191 0.0142257 0.00164306 0.00376191 0.000773284 0.00504632 0.00376191 0.0142257 0.00504632 0.00931935 -0.0123282 -0.00900326 -0.0469105 -0.0144257 -0.00900326 -0.00387494 -0.0144257 0.0275292 -0.0469105 -0.0144257 -0.0995251 -0.0194367 -0.0144257 0.0275292 -0.0194367 0.0589332 -0.00434454 0.00264967 0.000888244 -0.00272124 0.00264967 -0.000330233 -0.00272124 0.000729678 0.000888244 -0.00272124 0.00771716 0.00536266 -0.00272124 0.000729678 0.00536266 0.00300816 0.18914 -0.165016 0.146353 -0.0445639 -0.165016 -0.44462 -0.0445639 -0.233873 0.146353 -0.0445639 0.0233093 0.0114106 -0.0445639 -0.233873 0.0114106 -0.0004882 -0.0995251 -0.0194367 -0.426403 -0.165513 -0.0194367 0.0589332 -0.165513 0.0878394 -0.426403 -0.165513 -0.680865 -0.320116 -0.165513 0.0878394 -0.320116 0.116746 -0.00517112 0.000401266 0.00338591 -0.00288637 0.000401266 0.00771716 -0.00288637 0.00402634 0.00338591 -0.00288637 0.00182639 0.000585844 -0.00288637 0.00402634 0.000585844 0.000335513 3.47559 1.29851 2.85495 1.09151 1.29851 -0.680865 1.09151 -0.636668 2.85495 1.09151 2.2343 0.827799 2.85495 2.2343 -0.526201 0.790642 2.2343 1.61366 0.790642 0.721663 1.61366 0.993024 0.721663 0.372384 0.790642 0.721663 -0.44462 -0.2225 0.721663 0.372384 -0.2225 0 -0.680865 -0.320116 -0.636668 -0.305048 -0.320116 0.116746 -0.305048 0.0858259 -0.305048 0.0858259 -0.2619 0.0549062 -0.000330233 0.00159271 0.000729678 0.00123563 0.00159271 0.0040533 0.00123563 0.00164306 0.000729678 0.00123563 0.00300816 0.00189072 0.00123563 0.00164306 0.00189072 0.000773284 0.00182639 0.000585844 -0.00491198 -0.00410271 0.000585844 0.000335513 -0.00410271 -0.00176972 -0.00491198 -0.00410271 -0.0123282 -0.00900326 -0.00410271 -0.00176972 -0.00900326 -0.00387494 2.2343 0.827799 1.61366 0.662156 0.827799 -0.578706 0.662156 -0.289353 1.61366 0.662156 0.993024 0.496512 0.662156 -0.289353 0.496512 0 -0.578706 -0.2619 -0.289353 -0.13095 -0.2619 0.0549062 -0.13095 0.0274531 -0.289353 -0.13095 0 0 -0.13095 0.0274531 0 0 0.0140335 0.00786735 0.012943 0.0212321 0.00786735 0.0177419 0.0212321 0.0275046 0.012943 0.0212321 -0.00145207 -0.00592324 0.0212321 0.0275046 -0.00592324 -0.0103944 0.0282883 -0.0443037 0.00164169 0.0332905 -0.0443037 -0.0402375 0.0332905 0.0260229 0.00164169 0.0332905 0.0040533 0.0040614 0.0332905 0.0260229 0.0040614 0.00406951 -0.0402375 -0.0528276 0.0260229 -0.000651829 -0.0528276 -0.00785561 -0.000651829 0.00531624 0.0260229 -0.000651829 0.00406951 0.0112788 -0.000651829 0.00531624 0.0112788 0.0184881 0.0177419 0.016161 0.0275046 0.0268593 0.016161 0.0138042 0.0268593 0.0251113 0.0275046 0.0268593 -0.0103944 -0.00736948 0.0268593 0.0251113 -0.00736948 -0.00434454 0.0311157 -0.00480216 -0.0410077 0.0186306 -0.00480216 -0.0123282 0.0186306 -0.0296194 -0.0410077 0.0186306 -0.0411799 -0.00434182 0.0186306 -0.0296194 -0.00434182 -0.0469105 -0.0411799 -0.00434182 -0.062253 -0.0395183 -0.00434182 -0.0469105 -0.0395183 -0.0732178 -0.062253 -0.0395183 -0.131647 -0.136558 -0.0395183 -0.0732178 -0.136558 -0.0995251 0.0140372 0.0129329 0.0079026 0.0211483 0.0129329 -0.00145207 0.0211483 -0.0061442 0.0079026 0.0211483 0.0178126 0.0273345 0.0211483 -0.0061442 0.0273345 -0.0108363 0.0178126 0.0273345 0.0162741 0.0265873 0.0273345 -0.0108363 0.0265873 -0.00800372 0.0162741 0.0265873 0.0139263 0.0248222 0.0265873 -0.00800372 0.0248222 -0.00517112 0.0138042 0.00483613 0.0251113 0.0261434 0.00483613 0.0281809 0.0261434 0.00195817 0.0251113 0.0261434 -0.00434454 -0.000847437 0.0261434 0.00195817 -0.000847437 0.00264967 0.042303 0.0418288 0.0418285 0.021401 0.0418288 0.0140335 0.021401 0.012943 0.0418285 0.021401 0.0140372 0.0129329 0.021401 0.012943 0.0129329 -0.00145207 0.0281809 0.0262059 0.00195817 -0.000154138 0.0262059 0.0246347 -0.000154138 -0.000661311 0.00195817 -0.000154138 0.00264967 0.00115972 -0.000154138 -0.000661311 0.00115972 -0.000330233 -0.131647 -0.136558 -0.548049 -0.449525 -0.136558 -0.0995251 -0.449525 -0.262964 -0.449525 -0.262964 -0.70519 -0.426403 0.0139263 0.0248222 0.00482947 0.02609 0.0248222 -0.00517112 0.02609 -0.000892604 0.00482947 0.02609 0.0280406 0.00221782 0.02609 -0.000892604 0.00221782 0.00338591 5.33751 5.02719 0.679709 0.859492 5.02719 4.71687 0.859492 0.780162 0.679709 0.859492 -0.0402375 -0.0528276 4.09623 1.40957 3.78591 1.9738 3.78591 1.9738 3.47559 2.38705 1.9738 0.270669 2.38705 1.29851 -0.715417 -0.70519 0.270669 -0.24151 -0.70519 -0.426403 -0.24151 -0.553634 0.270669 -0.24151 1.29851 0.266448 -0.24151 -0.553634 0.266448 -0.680865 -0.00785561 -0.015559 0.00531624 0.041725 -0.015559 -0.0232623 0.041725 0.0781337 0.00531624 0.041725 0.0184881 0.0990089 0.041725 0.0781337 0.0990089 0.17953 -0.144044 -0.338877 0.18914 0.0120622 -0.338877 -0.410041 0.0120622 -0.165016 5.33751 0.681633 5.02719 0.864177 0.681633 -0.0411799 0.864177 -0.062253 5.02719 0.864177 4.71687 0.717933 3.47559 3.16527 1.23012 1.2305 3.16527 2.85495 1.2305 1.07195 1.2305 1.07195 -0.449805 -0.526201 0.0246347 0.0237472 -0.000661311 -0.00011079 0.0237472 0.0235703 -0.00011079 0.000600342 -0.000661311 -0.00011079 -0.000330233 0.00063124 -0.00011079 0.000600342 0.00063124 0.00159271 4.09623 3.78591 0.248027 0.44635 3.78591 3.47559 0.44635 1.23012 0.248027 0.44635 -0.0232623 -0.180339 0.44635 1.23012 -0.180339 -0.360974 0.0235703 0.0208819 0.000600342 0.00150456 0.0208819 0.0282883 0.00150456 0.00164169 0.000600342 0.00150456 0.00159271 0.002823 0.00150456 0.00164169 0.002823 0.0040533 0.0280406 0.00221782 0.0258896 0.00049003 0.00221782 0.00338591 0.00049003 0.00260615 0.0258896 0.00049003 0.0242295 0.000153213 0.00049003 0.00260615 0.000153213 0.00182639 0.0242295 0.000153213 0.0241161 -0.000938648 0.000153213 0.00182639 -0.000938648 -0.0015428 0.0241161 -0.000938648 0.024802 -0.00211832 -0.000938648 -0.0015428 -0.00211832 -0.00491198 0.024802 -0.00211832 0.0229295 -0.00276222 -0.00211832 -0.00491198 -0.00276222 -0.00862011 0.0229295 -0.00276222 0.0311157 -0.00480216 -0.00276222 -0.00862011 -0.00480216 -0.0123282 -0.0232623 -0.180339 0.0781337 -0.0235903 -0.180339 -0.360974 -0.0235903 -0.144044 0.0781337 -0.0235903 0.17953 0.184335 -0.0235903 -0.144044 0.184335 0.18914 1.09151 0.227423 0.959657 0.175985 0.227423 -0.636668 0.175985 -0.607687 0.959657 0.175985 0.827799 0.124546 0.175985 -0.607687 0.124546 -0.578706 -0.526201 0.120589 -0.410041 -0.132277 0.120589 0.790642 -0.132277 0.173011 -0.410041 -0.132277 -0.165016 -0.304818 -0.132277 0.173011 -0.304818 -0.44462 -0.636668 -0.470858 -0.607687 -0.44558 -0.470858 -0.305048 -0.44558 -0.283474 -0.607687 -0.44558 -0.578706 -0.420303 -0.44558 -0.283474 -0.420303 -0.2619 10.9233 10.7681 10.7681 6.79926 10.7681 10.6129 6.79926 4.62902 10.7681 6.79926 10.6129 4.62902 6.79926 4.62902 4.62902 1.40104 10.6129 10.4578 4.62902 4.0903 10.4578 10.3026 4.0903 4.06181 4.62902 4.0903 1.40104 0.661778 4.0903 4.06181 0.661778 0.717332 10.6129 4.62902 10.4578 4.0903 4.62902 1.40104 4.0903 0.661778 10.4578 4.0903 10.3026 4.06181 4.0903 0.661778 4.06181 0.717332 1.40104 0.661778 0.661778 -0.098286 0.661778 0.717332 -0.098286 -0.0127127 0.661778 -0.098286 0.717332 -0.0127127 -0.098286 -0.0127127 -0.0127127 0.042303 10.3026 10.1475 4.06181 4.01865 10.1475 9.99231 4.01865 3.94743 4.06181 4.01865 0.717332 0.744308 4.01865 3.94743 0.744308 0.71838 9.99231 9.83715 3.94743 3.88019 9.83715 9.68199 3.88019 3.82014 3.94743 3.88019 0.71838 0.693642 3.88019 3.82014 0.693642 0.674952 0.674952 0.663698 -0.0112509 -0.03663 0.663698 0.65477 -0.03663 -0.0417383 -0.0112509 -0.03663 0.0140335 0.0109504 -0.03663 -0.0417383 0.0109504 0.00786735 0.65477 0.644108 -0.0417383 -0.0371649 0.644108 0.633362 -0.0371649 -0.0348492 -0.0417383 -0.0371649 0.00786735 0.0128046 -0.0371649 -0.0348492 0.0128046 0.0177419 10.3026 4.06181 10.1475 4.01865 4.06181 0.717332 4.01865 0.744308 10.1475 4.01865 9.99231 3.94743 4.01865 0.744308 3.94743 0.71838 0.633362 0.622733 -0.0348492 -0.0342802 0.622733 0.611974 -0.0342802 -0.0349562 -0.0348492 -0.0342802 0.0177419 0.0169514 -0.0342802 -0.0349562 0.0169514 0.016161 9.99231 3.94743 9.83715 3.88019 3.94743 0.71838 3.88019 0.693643 9.83715 3.88019 9.68199 3.82014 3.88019 0.693643 3.82014 0.674954 0.611974 0.600018 -0.0349562 -0.0319674 0.600018 0.590776 -0.0319674 -0.0389808 -0.0349562 -0.0319674 0.016161 0.0149826 -0.0319674 -0.0389808 0.0149826 0.0138042 9.68199 9.52683 3.82014 3.76538 9.52683 9.37167 3.76538 3.70574 3.82014 3.76538 0.674952 0.663698 3.76538 3.70574 0.663698 0.65477 9.37167 9.21651 3.70574 3.64343 9.21651 9.06135 3.64343 3.58202 3.70574 3.64343 0.65477 0.644108 3.64343 3.58202 0.644108 0.633362 0.674954 -0.0112468 0.663702 -0.0366153 -0.0112468 0.0140372 -0.0366153 0.0109699 0.663702 -0.0366153 0.654776 -0.0417092 -0.0366153 0.0109699 -0.0417092 0.0079026 0.654776 -0.0417092 0.644117 -0.0371216 -0.0417092 0.0079026 -0.0371216 0.0128576 0.644117 -0.0371216 0.633375 -0.0347912 -0.0371216 0.0128576 -0.0347912 0.0178126 9.06135 8.90619 3.58202 3.52066 8.90619 8.75103 3.52066 3.45936 3.58202 3.52066 0.633362 0.622733 3.52066 3.45936 0.622733 0.611974 8.75103 8.59587 3.45936 3.39824 8.59587 8.44071 3.39824 3.33686 3.45936 3.39824 0.611974 0.600018 3.39824 3.33686 0.600018 0.590776 0.633375 -0.0347912 0.622749 -0.0342069 -0.0347912 0.0178126 -0.0342069 0.0170434 0.622749 -0.0342069 0.611993 -0.034868 -0.0342069 0.0170434 -0.034868 0.0162741 0.611993 -0.034868 0.600039 -0.0318661 -0.034868 0.0162741 -0.0318661 0.0151002 0.600039 -0.0318661 0.590795 -0.0388868 -0.0318661 0.0151002 -0.0388868 0.0139263 9.68199 3.82014 9.52683 3.76538 3.82014 0.674954 3.76538 0.663702 9.52683 3.76538 9.37167 3.70573 3.76538 0.663702 3.70573 0.654776 0.590776 0.576882 -0.0389808 -0.0269716 0.576882 0.568379 -0.0269716 0.0571226 -0.0389808 -0.0269716 0.0138042 0.00932015 -0.0269716 0.0571226 0.00932015 0.00483613 9.37167 3.70573 9.21651 3.64342 3.70573 0.654776 3.64342 0.644117 9.21651 3.64342 9.06135 3.58202 3.64342 0.644117 3.58202 0.633375 0.717332 0.744308 -0.0127127 0.0410943 0.744308 0.71838 0.0410943 0.0261461 -0.0127127 0.0410943 0.042303 0.0420659 0.0410943 0.0261461 0.0420659 0.0418288 9.06135 3.58202 8.90619 3.52066 3.58202 0.633375 3.52066 0.622749 8.90619 3.52066 8.75103 3.45935 3.52066 0.622749 3.45935 0.611993 0.71838 0.693642 0.0261461 0.011593 0.693642 0.674952 0.011593 -0.0112509 0.0261461 0.011593 0.0418288 0.0279311 0.011593 -0.0112509 0.0279311 0.0140335 8.75103 3.45935 8.59587 3.39823 3.45935 0.611993 3.39823 0.600039 8.59587 3.39823 8.44071 3.33685 3.39823 0.600039 3.33685 0.590795 0.717332 -0.0127127 0.744308 0.0410944 -0.0127127 0.042303 0.0410944 0.0420658 0.744308 0.0410944 0.71838 0.0261463 0.0410944 0.0420658 0.0261463 0.0418285 8.44071 8.28555 3.33686 3.27592 8.28555 8.13039 3.27592 3.205 3.33686 3.27592 0.590776 0.576882 3.27592 3.205 0.576882 0.568379 8.13039 7.97523 3.205 3.14325 7.97523 7.82007 3.14325 3.08259 3.205 3.14325 0.568379 0.560762 3.14325 3.08259 0.560762 0.558629 0.71838 0.0261463 0.693643 0.0115933 0.0261463 0.0418285 0.0115933 0.0279329 0.693643 0.0115933 0.674954 -0.0112468 0.0115933 0.0279329 -0.0112468 0.0140372 0.568379 0.560762 0.0571226 0.0959744 0.560762 0.558629 0.0959744 0.0990618 0.0571226 0.0959744 0.00483613 0.0165085 0.0959744 0.0990618 0.0165085 0.0281809 7.82007 7.66491 3.08259 3.02133 7.66491 7.50975 3.02133 2.95999 3.08259 3.02133 0.558629 0.54664 3.02133 2.95999 0.54664 0.533299 7.50975 7.35459 2.95999 2.89885 7.35459 7.19943 2.89885 2.83776 2.95999 2.89885 0.533299 0.522453 2.89885 2.83776 0.522453 0.512044 0.558629 0.54664 0.0990618 0.0985073 0.54664 0.533299 0.0985073 0.0943469 0.0990618 0.0985073 0.0281809 0.0271934 0.0985073 0.0943469 0.0271934 0.0262059 0.533299 0.522453 0.0943469 0.0924698 0.522453 0.512044 0.0924698 0.0908567 0.0943469 0.0924698 0.0262059 0.0254203 0.0924698 0.0908567 0.0254203 0.0246347 7.19943 7.04427 2.83776 2.77661 7.04427 6.88911 2.77661 2.71542 2.83776 2.77661 0.512044 0.500939 2.77661 2.71542 0.500939 0.48968 6.88911 6.73395 2.71542 2.65415 6.73395 6.57879 2.65415 2.59307 2.71542 2.65415 0.48968 0.478525 2.65415 2.59307 0.478525 0.467526 0.590795 -0.0388868 0.576893 -0.0269168 -0.0388868 0.0139263 -0.0269168 0.00937788 0.576893 -0.0269168 0.568378 0.0571202 -0.0269168 0.00937788 0.0571202 0.00482947 0.512044 0.500939 0.0908567 0.0888778 0.500939 0.48968 0.0888778 0.0868705 0.0908567 0.0888778 0.0246347 0.024191 0.0888778 0.0868705 0.024191 0.0237472 6.57879 6.42363 2.59307 2.53244 6.42363 6.26847 2.53244 2.47207 2.59307 2.53244 0.467526 0.457347 2.53244 2.47207 0.457347 0.445621 6.26847 6.11331 2.47207 2.39896 6.11331 5.95815 2.39896 2.36233 2.47207 2.39896 0.445621 0.424438 2.39896 2.36233 0.424438 0.416618 0.48968 0.478525 0.0868705 0.0848794 0.478525 0.467526 0.0848794 0.0829746 0.0868705 0.0848794 0.0237472 0.0236587 0.0848794 0.0829746 0.0236587 0.0235703 0.467526 0.457347 0.0829746 0.0817364 0.457347 0.445621 0.0817364 0.0798308 0.0829746 0.0817364 0.0235703 0.0222261 0.0817364 0.0798308 0.0222261 0.0208819 8.44071 3.33685 8.28555 3.27592 3.33685 0.590795 3.27592 0.576893 8.28555 3.27592 8.13039 3.205 3.27592 0.576893 3.205 0.568378 0.445621 0.424438 0.0798308 0.070542 0.424438 0.416618 0.070542 0.074147 0.0798308 0.070542 0.0208819 0.0245851 0.070542 0.074147 0.0245851 0.0282883 8.13039 3.205 7.97523 3.14325 3.205 0.568378 3.14325 0.560748 7.97523 3.14325 7.82007 3.0826 3.14325 0.560748 3.0826 0.558602 0.568378 0.0571202 0.560748 0.0959202 0.0571202 0.00482947 0.0959202 0.016435 0.560748 0.0959202 0.558602 0.0989571 0.0959202 0.016435 0.0989571 0.0280406 7.82007 3.0826 7.66491 3.02134 3.0826 0.558602 3.02134 0.546598 7.66491 3.02134 7.50975 2.96 3.02134 0.546598 2.96 0.533247 0.558602 0.0989571 0.546598 0.0983499 0.0989571 0.0280406 0.0983499 0.0269651 0.546598 0.0983499 0.533247 0.0941412 0.0983499 0.0269651 0.0941412 0.0258896 7.50975 2.96 7.35459 2.89888 2.96 0.533247 2.89888 0.522408 7.35459 2.89888 7.19943 2.83778 2.89888 0.522408 2.83778 0.512008 0.533247 0.0941412 0.522408 0.0922079 0.0941412 0.0258896 0.0922079 0.0250596 0.522408 0.0922079 0.512008 0.0906144 0.0922079 0.0250596 0.0906144 0.0242295 7.19943 2.83778 7.04427 2.77662 2.83778 0.512008 2.77662 0.500925 7.04427 2.77662 6.88911 2.71539 2.77662 0.500925 2.71539 0.48969 0.512008 0.0906144 0.500925 0.0888375 0.0906144 0.0242295 0.0888375 0.0241728 0.500925 0.0888375 0.48969 0.0871087 0.0888375 0.0241728 0.0871087 0.0241161 6.88911 2.71539 6.73395 2.6541 2.71539 0.48969 2.6541 0.478578 6.73395 2.6541 6.57879 2.59299 2.6541 0.478578 2.59299 0.467633 0.48969 0.0871087 0.478578 0.0853896 0.0871087 0.0241161 0.0853896 0.0244591 0.478578 0.0853896 0.467633 0.0837669 0.0853896 0.0244591 0.0837669 0.024802 6.57879 2.59299 6.42363 2.53233 2.59299 0.467633 2.53233 0.457522 6.42363 2.53233 6.26847 2.47192 2.53233 0.457522 2.47192 0.445869 0.467633 0.0837669 0.457522 0.0828309 0.0837669 0.024802 0.0828309 0.0238658 0.457522 0.0828309 0.445869 0.0812297 0.0828309 0.0238658 0.0812297 0.0229295 6.26847 2.47192 6.11331 2.39876 2.47192 0.445869 2.39876 0.424745 6.11331 2.39876 5.95815 2.36211 2.39876 0.424745 2.36211 0.417014 0.445869 0.0812297 0.424745 0.0722471 0.0812297 0.0229295 0.0722471 0.0270226 0.424745 0.0722471 0.417014 0.0761309 0.0722471 0.0270226 0.0761309 0.0311157 5.95815 5.80299 2.36233 2.42527 5.80299 5.64783 2.42527 3.09032 2.36233 2.42527 0.416618 0.560953 2.42527 3.09032 0.560953 0.53282 0.416618 0.560953 0.074147 0.0904699 0.560953 0.53282 0.0904699 0.244258 0.074147 0.0904699 0.0282883 -0.00800773 0.0904699 0.244258 -0.00800773 -0.0443037 -0.548049 -0.498787 -0.631733 -0.604545 -0.498787 -0.449525 -0.604545 -0.577357 -0.631733 -0.604545 -0.715417 -0.710304 -0.604545 -0.577357 -0.710304 -0.70519 5.64783 5.49267 3.09032 3.04947 5.49267 5.33751 3.04947 3.00861 3.09032 3.04947 0.53282 0.606265 3.04947 3.00861 0.606265 0.679709 0.53282 0.606265 0.244258 0.281997 0.606265 0.679709 0.281997 0.319736 0.244258 0.281997 -0.0443037 -0.0422706 0.281997 0.319736 -0.0422706 -0.0402375 0.859492 0.819827 0.403332 0.394743 0.819827 0.780162 0.394743 0.386153 0.403332 0.394743 -0.0528276 -0.0303416 0.394743 0.386153 -0.0303416 -0.00785561 0.417014 0.0761309 0.561496 0.0928363 0.0761309 0.0311157 0.0928363 -0.00494603 0.561496 0.0928363 0.533757 0.246375 0.0928363 -0.00494603 0.246375 -0.0410077 1.40957 0.347076 1.69169 0.734656 0.347076 -0.715417 0.734656 -0.222374 1.69169 0.734656 1.9738 1.12224 0.734656 -0.222374 1.12224 0.270669 4.71687 4.56171 2.74851 2.61847 4.56171 4.40655 2.61847 2.48842 2.74851 2.61847 0.780162 0.675229 2.61847 2.48842 0.675229 0.570297 4.40655 4.25139 2.48842 2.33027 4.25139 4.09623 2.33027 2.17213 2.48842 2.33027 0.570297 0.409162 2.33027 2.17213 0.409162 0.248027 5.95815 2.36211 5.80299 2.42502 2.36211 0.417014 2.42502 0.561496 5.80299 2.42502 5.64783 3.09079 2.42502 0.561496 3.09079 0.533757 0.780162 0.675229 0.386153 0.331761 0.675229 0.570297 0.331761 0.277369 0.386153 0.331761 -0.00785561 -0.0117073 0.331761 0.277369 -0.0117073 -0.015559 0.570297 0.409162 0.277369 0.194876 0.409162 0.248027 0.194876 0.112382 0.277369 0.194876 -0.015559 -0.0194106 0.194876 0.112382 -0.0194106 -0.0232623 5.64783 3.09079 5.49267 3.05018 3.09079 0.533757 3.05018 0.607695 5.49267 3.05018 5.33751 3.00957 3.05018 0.607695 3.00957 0.681633 0.533757 0.246375 0.607695 0.283301 0.246375 -0.0410077 0.283301 -0.0410938 0.607695 0.283301 0.681633 0.320226 0.283301 -0.0410938 0.320226 -0.0411799 -0.360974 -0.40539 -0.252509 -0.323425 -0.40539 -0.449805 -0.323425 -0.394341 -0.252509 -0.323425 -0.144044 -0.241461 -0.323425 -0.394341 -0.241461 -0.338877 -0.449805 -0.488003 -0.394341 -0.431231 -0.488003 -0.526201 -0.431231 -0.468121 -0.394341 -0.431231 -0.338877 -0.374459 -0.431231 -0.468121 -0.374459 -0.410041 0.864177 0.400962 0.791055 0.347052 0.400962 -0.062253 0.347052 -0.0969502 0.791055 0.347052 0.717933 0.293143 0.347052 -0.0969502 0.293143 -0.131647 1.23012 1.23031 0.434571 0.41246 1.23031 1.2305 0.41246 0.390348 0.434571 0.41246 -0.360974 -0.40539 0.41246 0.390348 -0.40539 -0.449805 4.71687 2.7174 4.56171 2.58631 2.7174 0.717933 2.58631 0.610918 4.56171 2.58631 4.40655 2.45522 2.58631 0.610918 2.45522 0.503903 0.717933 0.293143 0.610918 0.135535 0.293143 -0.131647 0.135535 -0.339848 0.610918 0.135535 0.503903 -0.022073 0.135535 -0.339848 -0.022073 -0.548049 4.40655 2.45522 4.25139 2.60406 2.45522 0.503903 2.60406 0.956736 4.25139 2.60406 4.09623 2.7529 2.60406 0.956736 2.7529 1.40957 0.503903 -0.022073 0.956736 0.162502 -0.022073 -0.548049 0.162502 -0.631733 0.956736 0.162502 1.40957 0.347076 0.162502 -0.631733 0.347076 -0.715417 
