# vtk DataFile Version 3.0
#This file was generated by the deal.II library on 2015/4/22 at 22:35:30
ASCII
DATASET UNSTRUCTURED_GRID

POINTS 7072 double
0 0 0
0.125 0 0
0 0.125 0
0.125 0.125 0
0.125 0 0
0.25 0 0
0.125 0.125 0
0.25 0.125 0
0 0.125 0
0.125 0.125 0
0 0.25 0
0.125 0.25 0
0.125 0.125 0
0.25 0.125 0
0.125 0.25 0
0.25 0.25 0
0.25 0.25 0
0.375 0.25 0
0.25 0.375 0
0.375 0.375 0
0.375 0.25 0
0.5 0.25 0
0.375 0.375 0
0.5 0.375 0
0.25 0.375 0
0.375 0.375 0
0.25 0.5 0
0.375 0.5 0
0.375 0.375 0
0.5 0.375 0
0.375 0.5 0
0.5 0.5 0
0.6875 0.1875 0
0.75 0.1875 0
0.6875 0.25 0
0.75 0.25 0
0.1875 0.6875 0
0.25 0.6875 0
0.1875 0.75 0
0.25 0.75 0
0.5 0 0
0.5625 0 0
0.5 0.0625 0
0.5625 0.0625 0
0.5625 0 0
0.625 0 0
0.5625 0.0625 0
0.625 0.0625 0
0.5 0.0625 0
0.5625 0.0625 0
0.5 0.125 0
0.5625 0.125 0
0.5625 0.0625 0
0.625 0.0625 0
0.5625 0.125 0
0.625 0.125 0
0.5 0.125 0
0.5625 0.125 0
0.5 0.1875 0
0.5625 0.1875 0
0.5625 0.125 0
0.625 0.125 0
0.5625 0.1875 0
0.625 0.1875 0
0.5 0.1875 0
0.5625 0.1875 0
0.5 0.25 0
0.5625 0.25 0
0 0.5 0
0.0625 0.5 0
0 0.5625 0
0.0625 0.5625 0
0.0625 0.5 0
0.125 0.5 0
0.0625 0.5625 0
0.125 0.5625 0
0 0.5625 0
0.0625 0.5625 0
0 0.625 0
0.0625 0.625 0
0.0625 0.5625 0
0.125 0.5625 0
0.0625 0.625 0
0.125 0.625 0
0.125 0.5 0
0.1875 0.5 0
0.125 0.5625 0
0.1875 0.5625 0
0.1875 0.5 0
0.25 0.5 0
0.1875 0.5625 0
0.25 0.5625 0
0.125 0.5625 0
0.1875 0.5625 0
0.125 0.625 0
0.1875 0.625 0
0.625 0.25 0
0.6875 0.25 0
0.625 0.3125 0
0.6875 0.3125 0
0.6875 0.25 0
0.75 0.25 0
0.6875 0.3125 0
0.75 0.3125 0
0.25 0.625 0
0.3125 0.625 0
0.25 0.6875 0
0.3125 0.6875 0
0.25 0.6875 0
0.3125 0.6875 0
0.25 0.75 0
0.3125 0.75 0
0.25 0 0
0.3125 0 0
0.25 0.0625 0
0.3125 0.0625 0
0.25 0.0625 0
0.3125 0.0625 0
0.25 0.125 0
0.3125 0.125 0
0.4375 0.0625 0
0.5 0.0625 0
0.4375 0.125 0
0.5 0.125 0
0 0.25 0
0.0625 0.25 0
0 0.3125 0
0.0625 0.3125 0
0.0625 0.25 0
0.125 0.25 0
0.0625 0.3125 0
0.125 0.3125 0
0.0625 0.4375 0
0.125 0.4375 0
0.0625 0.5 0
0.125 0.5 0
0.5 0.25 0
0.5625 0.25 0
0.5 0.3125 0
0.5625 0.3125 0
0.5625 0.25 0
0.625 0.25 0
0.5625 0.3125 0
0.625 0.3125 0
0.5 0.3125 0
0.5625 0.3125 0
0.5 0.375 0
0.5625 0.375 0
0.5625 0.3125 0
0.625 0.3125 0
0.5625 0.375 0
0.625 0.375 0
0.5 0.375 0
0.5625 0.375 0
0.5 0.4375 0
0.5625 0.4375 0
0.5625 0.375 0
0.625 0.375 0
0.5625 0.4375 0
0.625 0.4375 0
0.5 0.4375 0
0.5625 0.4375 0
0.5 0.5 0
0.5625 0.5 0
0.5625 0.4375 0
0.625 0.4375 0
0.5625 0.5 0
0.625 0.5 0
0.25 0.5 0
0.3125 0.5 0
0.25 0.5625 0
0.3125 0.5625 0
0.3125 0.5 0
0.375 0.5 0
0.3125 0.5625 0
0.375 0.5625 0
0.25 0.5625 0
0.3125 0.5625 0
0.25 0.625 0
0.3125 0.625 0
0.3125 0.5625 0
0.375 0.5625 0
0.3125 0.625 0
0.375 0.625 0
0.375 0.5 0
0.4375 0.5 0
0.375 0.5625 0
0.4375 0.5625 0
0.4375 0.5 0
0.5 0.5 0
0.4375 0.5625 0
0.5 0.5625 0
0.375 0.5625 0
0.4375 0.5625 0
0.375 0.625 0
0.4375 0.625 0
0.4375 0.5625 0
0.5 0.5625 0
0.4375 0.625 0
0.5 0.625 0
0.5 0.5 0
0.5625 0.5 0
0.5 0.5625 0
0.5625 0.5625 0
0.5625 0.5 0
0.625 0.5 0
0.5625 0.5625 0
0.625 0.5625 0
0.5 0.5625 0
0.5625 0.5625 0
0.5 0.625 0
0.5625 0.625 0
0.25 0.125 0
0.3125 0.125 0
0.25 0.1875 0
0.3125 0.1875 0
0.3125 0.125 0
0.375 0.125 0
0.3125 0.1875 0
0.375 0.1875 0
0.25 0.1875 0
0.3125 0.1875 0
0.25 0.25 0
0.3125 0.25 0
0.3125 0.1875 0
0.375 0.1875 0
0.3125 0.25 0
0.375 0.25 0
0.375 0.125 0
0.4375 0.125 0
0.375 0.1875 0
0.4375 0.1875 0
0.4375 0.125 0
0.5 0.125 0
0.4375 0.1875 0
0.5 0.1875 0
0.375 0.1875 0
0.4375 0.1875 0
0.375 0.25 0
0.4375 0.25 0
0.4375 0.1875 0
0.5 0.1875 0
0.4375 0.25 0
0.5 0.25 0
0.125 0.25 0
0.1875 0.25 0
0.125 0.3125 0
0.1875 0.3125 0
0.1875 0.25 0
0.25 0.25 0
0.1875 0.3125 0
0.25 0.3125 0
0.125 0.3125 0
0.1875 0.3125 0
0.125 0.375 0
0.1875 0.375 0
0.1875 0.3125 0
0.25 0.3125 0
0.1875 0.375 0
0.25 0.375 0
0.125 0.375 0
0.1875 0.375 0
0.125 0.4375 0
0.1875 0.4375 0
0.1875 0.375 0
0.25 0.375 0
0.1875 0.4375 0
0.25 0.4375 0
0.125 0.4375 0
0.1875 0.4375 0
0.125 0.5 0
0.1875 0.5 0
0.1875 0.4375 0
0.25 0.4375 0
0.1875 0.5 0
0.25 0.5 0
0.875 0.3125 0
0.90625 0.3125 0
0.875 0.34375 0
0.90625 0.34375 0
0.875 0.34375 0
0.90625 0.34375 0
0.875 0.375 0
0.90625 0.375 0
0.875 0.375 0
0.90625 0.375 0
0.875 0.40625 0
0.90625 0.40625 0
0.875 0.40625 0
0.90625 0.40625 0
0.875 0.4375 0
0.90625 0.4375 0
0.875 0.4375 0
0.90625 0.4375 0
0.875 0.46875 0
0.90625 0.46875 0
0.875 0.46875 0
0.90625 0.46875 0
0.875 0.5 0
0.90625 0.5 0
0.3125 0.875 0
0.34375 0.875 0
0.3125 0.90625 0
0.34375 0.90625 0
0.34375 0.875 0
0.375 0.875 0
0.34375 0.90625 0
0.375 0.90625 0
0.375 0.875 0
0.40625 0.875 0
0.375 0.90625 0
0.40625 0.90625 0
0.40625 0.875 0
0.4375 0.875 0
0.40625 0.90625 0
0.4375 0.90625 0
0.4375 0.875 0
0.46875 0.875 0
0.4375 0.90625 0
0.46875 0.90625 0
0.46875 0.875 0
0.5 0.875 0
0.46875 0.90625 0
0.5 0.90625 0
0.875 0.5 0
0.90625 0.5 0
0.875 0.53125 0
0.90625 0.53125 0
0.9375 0.5625 0
0.96875 0.5625 0
0.9375 0.59375 0
0.96875 0.59375 0
0.8125 0.03125 0
0.84375 0.03125 0
0.8125 0.0625 0
0.84375 0.0625 0
0.9375 0.625 0
0.96875 0.625 0
0.9375 0.65625 0
0.96875 0.65625 0
0.9375 0.65625 0
0.96875 0.65625 0
0.9375 0.6875 0
0.96875 0.6875 0
0.75 0.0625 0
0.78125 0.0625 0
0.75 0.09375 0
0.78125 0.09375 0
0.5 0.875 0
0.53125 0.875 0
0.5 0.90625 0
0.53125 0.90625 0
0.5625 0.9375 0
0.59375 0.9375 0
0.5625 0.96875 0
0.59375 0.96875 0
0.59375 0.9375 0
0.625 0.9375 0
0.59375 0.96875 0
0.625 0.96875 0
0.84375 0.0625 0
0.875 0.0625 0
0.84375 0.09375 0
0.875 0.09375 0
0.8125 0.09375 0
0.84375 0.09375 0
0.8125 0.125 0
0.84375 0.125 0
0.84375 0.09375 0
0.875 0.09375 0
0.84375 0.125 0
0.875 0.125 0
0.875 0.25 0
0.90625 0.25 0
0.875 0.28125 0
0.90625 0.28125 0
0.90625 0.25 0
0.9375 0.25 0
0.90625 0.28125 0
0.9375 0.28125 0
0.875 0.28125 0
0.90625 0.28125 0
0.875 0.3125 0
0.90625 0.3125 0
0.90625 0.28125 0
0.9375 0.28125 0
0.90625 0.3125 0
0.9375 0.3125 0
0.875 0.0625 0
0.90625 0.0625 0
0.875 0.09375 0
0.90625 0.09375 0
0.90625 0.0625 0
0.9375 0.0625 0
0.90625 0.09375 0
0.9375 0.09375 0
0.875 0.09375 0
0.90625 0.09375 0
0.875 0.125 0
0.90625 0.125 0
0.90625 0.09375 0
0.9375 0.09375 0
0.90625 0.125 0
0.9375 0.125 0
0.25 0.875 0
0.28125 0.875 0
0.25 0.90625 0
0.28125 0.90625 0
0.28125 0.875 0
0.3125 0.875 0
0.28125 0.90625 0
0.3125 0.90625 0
0.25 0.90625 0
0.28125 0.90625 0
0.25 0.9375 0
0.28125 0.9375 0
0.28125 0.90625 0
0.3125 0.90625 0
0.28125 0.9375 0
0.3125 0.9375 0
0.875 0.125 0
0.90625 0.125 0
0.875 0.15625 0
0.90625 0.15625 0
0.90625 0.125 0
0.9375 0.125 0
0.90625 0.15625 0
0.9375 0.15625 0
0.875 0.15625 0
0.90625 0.15625 0
0.875 0.1875 0
0.90625 0.1875 0
0.90625 0.15625 0
0.9375 0.15625 0
0.90625 0.1875 0
0.9375 0.1875 0
0.875 0.1875 0
0.90625 0.1875 0
0.875 0.21875 0
0.90625 0.21875 0
0.90625 0.1875 0
0.9375 0.1875 0
0.90625 0.21875 0
0.9375 0.21875 0
0.875 0.21875 0
0.90625 0.21875 0
0.875 0.25 0
0.90625 0.25 0
0.90625 0.21875 0
0.9375 0.21875 0
0.90625 0.25 0
0.9375 0.25 0
0.09375 0.8125 0
0.125 0.8125 0
0.09375 0.84375 0
0.125 0.84375 0
0.0625 0.84375 0
0.09375 0.84375 0
0.0625 0.875 0
0.09375 0.875 0
0.09375 0.84375 0
0.125 0.84375 0
0.09375 0.875 0
0.125 0.875 0
0.0625 0.875 0
0.09375 0.875 0
0.0625 0.90625 0
0.09375 0.90625 0
0.09375 0.875 0
0.125 0.875 0
0.09375 0.90625 0
0.125 0.90625 0
0.0625 0.90625 0
0.09375 0.90625 0
0.0625 0.9375 0
0.09375 0.9375 0
0.09375 0.90625 0
0.125 0.90625 0
0.09375 0.9375 0
0.125 0.9375 0
0.125 0.875 0
0.15625 0.875 0
0.125 0.90625 0
0.15625 0.90625 0
0.15625 0.875 0
0.1875 0.875 0
0.15625 0.90625 0
0.1875 0.90625 0
0.125 0.90625 0
0.15625 0.90625 0
0.125 0.9375 0
0.15625 0.9375 0
0.15625 0.90625 0
0.1875 0.90625 0
0.15625 0.9375 0
0.1875 0.9375 0
0.1875 0.875 0
0.21875 0.875 0
0.1875 0.90625 0
0.21875 0.90625 0
0.21875 0.875 0
0.25 0.875 0
0.21875 0.90625 0
0.25 0.90625 0
0.1875 0.90625 0
0.21875 0.90625 0
0.1875 0.9375 0
0.21875 0.9375 0
0.21875 0.90625 0
0.25 0.90625 0
0.21875 0.9375 0
0.25 0.9375 0
0.75 0 0
0.78125 0 0
0.75 0.03125 0
0.78125 0.03125 0
0.8125 0.625 0
0.84375 0.625 0
0.8125 0.65625 0
0.84375 0.65625 0
0.625 0.8125 0
0.65625 0.8125 0
0.625 0.84375 0
0.65625 0.84375 0
0 0.75 0
0.03125 0.75 0
0 0.78125 0
0.03125 0.78125 0
0.03125 0.75 0
0.0625 0.75 0
0.03125 0.78125 0
0.0625 0.78125 0
0.0625 0.75 0
0.09375 0.75 0
0.0625 0.78125 0
0.09375 0.78125 0
0.625 0 0
0.65625 0 0
0.625 0.03125 0
0.65625 0.03125 0
0.65625 0 0
0.6875 0 0
0.65625 0.03125 0
0.6875 0.03125 0
0.625 0.03125 0
0.65625 0.03125 0
0.625 0.0625 0
0.65625 0.0625 0
0.65625 0.03125 0
0.6875 0.03125 0
0.65625 0.0625 0
0.6875 0.0625 0
0.625 0.0625 0
0.65625 0.0625 0
0.625 0.09375 0
0.65625 0.09375 0
0.625 0.09375 0
0.65625 0.09375 0
0.625 0.125 0
0.65625 0.125 0
0.75 0.25 0
0.78125 0.25 0
0.75 0.28125 0
0.78125 0.28125 0
0.78125 0.25 0
0.8125 0.25 0
0.78125 0.28125 0
0.8125 0.28125 0
0.75 0.28125 0
0.78125 0.28125 0
0.75 0.3125 0
0.78125 0.3125 0
0.78125 0.28125 0
0.8125 0.28125 0
0.78125 0.3125 0
0.8125 0.3125 0
0 0.625 0
0.03125 0.625 0
0 0.65625 0
0.03125 0.65625 0
0.03125 0.625 0
0.0625 0.625 0
0.03125 0.65625 0
0.0625 0.65625 0
0 0.65625 0
0.03125 0.65625 0
0 0.6875 0
0.03125 0.6875 0
0.03125 0.65625 0
0.0625 0.65625 0
0.03125 0.6875 0
0.0625 0.6875 0
0.0625 0.625 0
0.09375 0.625 0
0.0625 0.65625 0
0.09375 0.65625 0
0.09375 0.625 0
0.125 0.625 0
0.09375 0.65625 0
0.125 0.65625 0
0.8125 0.25 0
0.84375 0.25 0
0.8125 0.28125 0
0.84375 0.28125 0
0.84375 0.25 0
0.875 0.25 0
0.84375 0.28125 0
0.875 0.28125 0
0.84375 0.28125 0
0.875 0.28125 0
0.84375 0.3125 0
0.875 0.3125 0
0.75 0.3125 0
0.78125 0.3125 0
0.75 0.34375 0
0.78125 0.34375 0
0.78125 0.3125 0
0.8125 0.3125 0
0.78125 0.34375 0
0.8125 0.34375 0
0.75 0.34375 0
0.78125 0.34375 0
0.75 0.375 0
0.78125 0.375 0
0.78125 0.34375 0
0.8125 0.34375 0
0.78125 0.375 0
0.8125 0.375 0
0.75 0.375 0
0.78125 0.375 0
0.75 0.40625 0
0.78125 0.40625 0
0.78125 0.375 0
0.8125 0.375 0
0.78125 0.40625 0
0.8125 0.40625 0
0.75 0.40625 0
0.78125 0.40625 0
0.75 0.4375 0
0.78125 0.4375 0
0.78125 0.40625 0
0.8125 0.40625 0
0.78125 0.4375 0
0.8125 0.4375 0
0.75 0.4375 0
0.78125 0.4375 0
0.75 0.46875 0
0.78125 0.46875 0
0.78125 0.4375 0
[...]
POINT_DATA 7072
SCALARS V double 1
LOOKUP_TABLE default
0 0 0 0.00089898 0 0 0.00089898 0.00246522 0 0.00089898 0 0.00246555 0.00089898 0.00246522 0.00246555 0.00367439 0.00367439 0.0059995 0.00600315 0.0040333 0.0059995 0.014561 0.0040333 0.00786103 0.00600315 0.0040333 0.0145794 0.0078678 0.0040333 0.00786103 0.0078678 0.00924884 0.0751699 0.111539 0.0630445 0.101783 0.0752305 0.0630976 0.111602 0.101844 0.0497009 0.080764 0.0402579 0.0639197 0.080764 0.111827 0.0639197 0.0864938 0.0402579 0.0639197 0.0301403 0.0470684 0.0639197 0.0864938 0.0470684 0.0688828 0.0301403 0.0470684 0.0223507 0.0331237 0.0470684 0.0688828 0.0331237 0.049547 0.0223507 0.0331237 0.014561 0.0238879 0.0497009 0.0402702 0.080764 0.0639377 0.0402702 0.0301597 0.0639377 0.0471011 0.080764 0.0639377 0.111827 0.086526 0.0639377 0.0471011 0.086526 0.0689303 0.0301597 0.0223696 0.0471011 0.0331586 0.0223696 0.0145794 0.0331586 0.0239167 0.0471011 0.0331586 0.0689303 0.0495971 0.0379292 0.0630445 0.0303907 0.0559489 0.0630445 0.101783 0.0559489 0.0966048 0.0379738 0.0304176 0.0630976 0.0559848 0.0630976 0.0559848 0.101844 0.0966436 0 0 0.00123261 0.00365899 0.00123261 0.00365899 0.00246522 0.00605397 0.0212492 0.0402579 0.0198915 0.0301403 0 0.00123278 0 0.00366002 0.00123278 0.00246555 0.00366002 0.00605619 0.0212555 0.0199033 0.0402702 0.0301597 0.014561 0.0238879 0.00986175 0.0169073 0.0238879 0.0379292 0.0169073 0.0303907 0.00986175 0.0169073 0.00786103 0.013899 0.0169073 0.0303907 0.013899 0.0274635 0.00786103 0.013899 0.00679519 0.013093 0.013899 0.0274635 0.013093 0.0269562 0.00679519 0.013093 0.00924884 0.0156838 0.013093 0.0269562 0.0156838 0.0301691 0.0145794 0.00987418 0.0239167 0.0169271 0.00987418 0.0078678 0.0169271 0.0139097 0.0239167 0.0169271 0.0379738 0.0304176 0.0169271 0.0139097 0.0304176 0.0274789 0.0078678 0.006797 0.0139097 0.0130966 0.006797 0.00924884 0.0130966 0.0156847 0.0139097 0.0130966 0.0274789 0.0269612 0.0130966 0.0156847 0.0269612 0.03017 0.00924884 0.0156838 0.0156847 0.0224806 0.0156838 0.0301691 0.0224806 0.0375412 0.0156847 0.0224806 0.03017 0.0375408 0.00246522 0.00605397 0.00306981 0.00544546 0.00605397 0.00964272 0.00544546 0.00782111 0.00306981 0.00544546 0.00367439 0.00483695 0.00544546 0.00782111 0.00483695 0.0059995 0.00964272 0.0198915 0.00782111 0.0150859 0.0198915 0.0301403 0.0150859 0.0223507 0.00782111 0.0150859 0.0059995 0.0102803 0.0150859 0.0223507 0.0102803 0.014561 0.00246555 0.00306997 0.00605619 0.00544748 0.00306997 0.00367439 0.00544748 0.00483877 0.00605619 0.00544748 0.00964683 0.00782499 0.00544748 0.00483877 0.00782499 0.00600315 0.00964683 0.00782499 0.0199033 0.0150973 0.00782499 0.00600315 0.0150973 0.0102913 0.0199033 0.0150973 0.0301597 0.0223696 0.0150973 0.0102913 0.0223696 0.0145794 0.239552 0.288064 0.245308 0.296177 0.245308 0.296177 0.251432 0.305508 0.251432 0.305508 0.258359 0.313885 0.258359 0.313885 0.265846 0.322913 0.265846 0.322913 0.273782 0.332819 0.273782 0.332819 0.282237 0.342784 0.239579 0.245328 0.288085 0.296193 0.245328 0.251448 0.296193 0.30552 0.251448 0.258373 0.30552 0.313897 0.258373 0.265862 0.313897 0.322926 0.265862 0.273798 0.322926 0.332836 0.273798 0.282255 0.332836 0.342801 0.282237 0.342784 0.291562 0.352825 0.430457 0.507655 0.443203 0.521754 0.189835 0.220235 0.193544 0.206177 0.457388 0.536768 0.474852 0.552549 0.474852 0.552549 0.491364 0.568447 0.153002 0.171989 0.134806 0.156182 0.282255 0.291571 0.342801 0.352835 0.430422 0.443477 0.507662 0.522073 0.443477 0.459553 0.522073 0.53671 0.206177 0.230616 0.202348 0.229328 0.177724 0.202348 0.169938 0.200445 0.202348 0.229328 0.200445 0.22576 0.230726 0.274551 0.234742 0.281713 0.274551 0.322824 0.281713 0.33272 0.234742 0.281713 0.239552 0.288064 0.281713 0.33272 0.288064 0.340543 0.230616 0.252351 0.229328 0.254148 0.252351 0.27836 0.254148 0.284105 0.229328 0.254148 0.22576 0.257709 0.254148 0.284105 0.257709 0.291696 0.230761 0.234774 0.274583 0.281739 0.234774 0.239579 0.281739 0.288085 0.274583 0.281739 0.322845 0.332738 0.281739 0.288085 0.332738 0.340557 0.22576 0.257709 0.227677 0.260435 0.257709 0.291696 0.260435 0.298732 0.227677 0.260435 0.225612 0.264467 0.260435 0.298732 0.264467 0.306102 0.225612 0.264467 0.22843 0.268905 0.264467 0.306102 0.268905 0.314146 0.22843 0.268905 0.230726 0.274551 0.268905 0.314146 0.274551 0.322824 0.177084 0.170621 0.202709 0.200574 0.206241 0.202709 0.230626 0.229332 0.202709 0.200574 0.229332 0.225663 0.230626 0.229332 0.252368 0.254175 0.229332 0.225663 0.254175 0.257768 0.252368 0.254175 0.278377 0.28413 0.254175 0.257768 0.28413 0.291725 0.225663 0.227685 0.257768 0.260488 0.227685 0.225683 0.260488 0.264506 0.257768 0.260488 0.291725 0.298763 0.260488 0.264506 0.298763 0.30613 0.225683 0.228486 0.264506 0.268939 0.228486 0.230761 0.268939 0.274583 0.264506 0.268939 0.30613 0.31417 0.268939 0.274583 0.31417 0.322845 0.173953 0.189485 0.158977 0.175577 0.217131 0.275606 0.232164 0.282187 0.217132 0.232129 0.275611 0.282262 0.173953 0.15884 0.189485 0.175655 0.15884 0.153252 0.175655 0.17248 0.153252 0.13534 0.17248 0.154225 0.111827 0.127359 0.0991604 0.113586 0.127359 0.14289 0.113586 0.128281 0.0991604 0.113586 0.0864938 0.104271 0.113586 0.128281 0.104271 0.121825 0.0864938 0.104271 0.0776883 0.088511 0.0776883 0.088511 0.0688828 0.0809626 0.101783 0.127827 0.0978618 0.126432 0.127827 0.155917 0.126432 0.156098 0.0978618 0.126432 0.0966048 0.125678 0.126432 0.156098 0.125678 0.15671 0.111827 0.0991765 0.127359 0.113597 0.0991765 0.086526 0.113597 0.10429 0.127359 0.113597 0.14289 0.128307 0.113597 0.10429 0.128307 0.121874 0.086526 0.0777281 0.10429 0.0885436 0.0777281 0.0689303 0.0885436 0.0810165 0.155917 0.195634 0.156098 0.19777 0.195634 0.230726 0.19777 0.234742 0.19777 0.234742 0.200312 0.239552 0.0966048 0.125678 0.0958407 0.126341 0.125678 0.15671 0.126341 0.158653 0.0958407 0.126341 0.0964523 0.127856 0.126341 0.158653 0.127856 0.161435 0.0964523 0.127856 0.0978726 0.130372 0.127856 0.161435 0.130372 0.165043 0.0978726 0.130372 0.100159 0.133603 0.130372 0.165043 0.133603 0.169375 0.100159 0.133603 0.103195 0.137645 0.133603 0.169375 0.137645 0.174462 0.103195 0.137645 0.107158 0.142553 0.137645 0.174462 0.142553 0.180357 0.101844 0.0979057 0.127886 0.12648 0.0979057 0.0966436 0.12648 0.125713 0.127886 0.12648 0.155982 0.156142 0.12648 0.125713 0.156142 0.156743 0.0966436 0.0958678 0.125713 0.126368 0.0958678 0.0964725 0.126368 0.127877 0.125713 0.126368 0.156743 0.158678 0.126368 0.127877 0.158678 0.161455 0.155982 0.156142 0.195687 0.197811 0.195687 0.197811 0.230761 0.234774 0.197811 0.200343 0.234774 0.239579 0.0964725 0.0978867 0.127877 0.130387 0.0978867 0.100168 0.130387 0.133616 0.127877 0.130387 0.161455 0.165058 0.130387 0.133616 0.165058 0.16939 0.100168 0.103203 0.133616 0.137656 0.103203 0.107165 0.137656 0.142565 0.133616 0.137656 0.16939 0.174476 0.137656 0.142565 0.174476 0.180373 0.128017 0.148921 0.119749 0.143892 0.148921 0.169938 0.143892 0.166937 0.119749 0.143892 0.111539 0.135251 0.143892 0.166937 0.135251 0.160125 0.169938 0.200445 0.166937 0.199495 0.200445 0.22576 0.199495 0.227677 0.166937 0.199495 0.160125 0.195166 0.199495 0.227677 0.195166 0.225612 0.111539 0.135251 0.104845 0.13196 0.135251 0.160125 0.13196 0.157986 0.104845 0.13196 0.101783 0.127827 0.13196 0.157986 0.127827 0.155917 0.160125 0.195166 0.157986 0.19546 0.195166 0.225612 0.19546 0.22843 0.157986 0.19546 0.155917 0.195634 0.19546 0.22843 0.195634 0.230726 0.107158 0.142553 0.112233 0.148532 0.142553 0.180357 0.148532 0.1872 0.112233 0.148532 0.118922 0.155933 0.148532 0.1872 0.155933 0.195364 0.118922 0.155933 0.127252 0.165204 0.155933 0.195364 0.165204 0.205188 0.127252 0.165204 0.13846 0.176313 0.165204 0.205188 0.176313 0.217131 0.13846 0.176313 0.152319 0.191407 0.176313 0.217131 0.191407 0.232164 0.152319 0.191407 0.172125 0.20978 0.191407 0.232164 0.20978 0.251091 0.172125 0.20978 0.193037 0.233583 0.20978 0.251091 0.233583 0.273989 0.193037 0.233583 0.223222 0.260461 0.233583 0.273989 0.260461 0.299791 0.107165 0.112239 0.142565 0.148539 0.112239 0.118927 0.148539 0.155934 0.142565 0.148539 0.180373 0.187206 0.148539 0.155934 0.187206 0.19536 0.118927 0.127252 0.155934 0.165199 0.127252 0.13846 0.165199 0.176302 0.155934 0.165199 0.19536 0.205182 0.165199 0.176302 0.205182 0.217132 0.13846 0.152317 0.176302 0.191406 0.152317 0.17213 0.191406 0.209788 0.176302 0.191406 0.217132 0.232129 0.191406 0.209788 0.232129 0.251062 0.17213 0.193046 0.209788 0.233603 0.193046 0.223222 0.233603 0.260483 0.209788 0.233603 0.251062 0.273984 0.233603 0.260483 0.273984 0.299779 0.128155 0.119808 0.149575 0.143933 0.119808 0.111602 0.143933 0.135252 0.149575 0.143933 0.170621 0.167015 0.143933 0.135252 0.167015 0.160081 0.111602 0.104911 0.135252 0.132038 0.104911 0.101844 0.132038 0.127886 0.135252 0.132038 0.160081 0.158053 0.132038 0.127886 0.158053 0.155982 0.170621 0.167015 0.200574 0.199522 0.167015 0.160081 0.199522 0.195181 0.200574 0.199522 0.225663 0.227685 0.199522 0.195181 0.227685 0.225683 0.160081 0.158053 0.195181 0.195527 0.158053 0.155982 0.195527 0.195687 0.195181 0.195527 0.225683 0.228486 0.195527 0.195687 0.228486 0.230761 0.223222 0.260461 0.260483 0.297511 0.0930424 0.110056 0.0841062 0.101829 0.110056 0.128017 0.101829 0.119749 0.0841062 0.101829 0.0751699 0.0917415 0.101829 0.119749 0.0917415 0.111539 0.0931027 0.0841666 0.110089 0.101899 0.0841666 0.0752305 0.101899 0.0918057 0.110089 0.101899 0.128155 0.119808 0.101899 0.0918057 0.119808 0.111602 0.0688828 0.0809626 0.0592149 0.0716605 0.0809626 0.0930424 0.0716605 0.0841062 0.0592149 0.0716605 0.049547 0.0623584 0.0716605 0.0841062 0.0623584 0.0751699 0.049547 0.0623584 0.0437381 0.0564227 0.0623584 0.0751699 0.0564227 0.0691072 0.0437381 0.0564227 0.0379292 0.0504869 0.0564227 0.0691072 0.0504869 0.0630445 0.0689303 0.0592637 0.0810165 0.0717152 0.0592637 0.0495971 0.0717152 0.0624138 0.0810165 0.0717152 0.0931027 0.0841666 0.0717152 0.0624138 0.0841666 0.0752305 0.0495971 0.0437854 0.0624138 0.0564748 0.0437854 0.0379738 0.0564748 0.0505357 0.0624138 0.0564748 0.0752305 0.0691641 0.0564748 0.0505357 0.0691641 0.0630976 0.0331237 0.0413353 0.0285058 0.0361219 0.0413353 0.049547 0.0361219 0.0437381 0.0285058 0.0361219 0.0238879 0.0309085 0.0361219 0.0437381 0.0309085 0.0379292 0.0331586 0.0285377 0.0413778 0.0361616 0.0285377 0.0239167 0.0361616 0.0309453 0.0413778 0.0361616 0.0495971 0.0437854 0.0361616 0.0309453 0.0437854 0.0379738 0.0303907 0.0431698 0.0289271 0.0416674 0.0431698 0.0559489 0.0416674 0.0544077 0.0289271 0.0416674 0.0274635 0.040165 0.0416674 0.0544077 0.040165 0.0528665 0.0274635 0.040165 0.0272098 0.0403615 0.040165 0.0528665 0.0403615 0.0535132 0.0272098 0.0403615 0.0269562 0.0405581 0.0403615 0.0535132 0.0405581 0.0541599 0.0269562 0.0405581 0.0285626 0.0424685 0.0405581 0.0541599 0.0424685 0.0563744 0.0285626 0.0424685 0.0301691 0.0443789 0.0424685 0.0563744 0.0443789 0.0585888 0.0304176 0.0289482 0.0432012 0.0416913 0.0289482 0.0274789 0.0416913 0.0401814 0.0432012 0.0416913 0.0559848 0.0544344 0.0416913 0.0401814 0.0544344 0.052884 0.0274789 0.02722 0.0401814 0.0403727 0.02722 0.0269612 0.0403727 0.040564 0.0401814 0.0403727 0.052884 0.0535254 0.0403727 0.040564 0.0535254 0.0541667 0.0559489 0.07336 0.0544077 0.071758 0.07336 0.0966048 0.071758 0.0958407 0.071758 0.0958407 0.0712397 0.0964523 0.0269612 0.0285656 0.040564 0.0424722 0.0285656 0.03017 0.0424722 0.0443804 0.040564 0.0424722 0.0541667 0.0563788 0.0424722 0.0443804 0.0563788 0.0585908 0.0712397 0.0964523 0.0718724 0.0978726 0.0718724 0.0978726 0.0734478 0.100159 0.0301691 0.0443789 0.0338551 0.0485622 0.0443789 0.0585888 0.0485622 0.0632693 0.0338551 0.0485622 0.0375412 0.0527456 0.0485622 0.0632693 0.0527456 0.0679499 0.0375412 0.0527456 0.0453237 0.0610883 0.0527456 0.0679499 0.0610883 0.0768528 0.0453237 0.0610883 0.0531063 0.0694309 0.0610883 0.0768528 0.0694309 0.0857556 0.03017 0.0338554 0.0443804 0.048563 0.0338554 0.0375408 0.048563 0.0527456 0.0443804 0.048563 0.0585908 0.0632706 0.048563 0.0527456 0.0632706 0.0679504 0.0375408 0.0453235 0.0527456 0.0610877 0.0453235 0.0531063 0.0610877 0.0694298 0.0527456 0.0610877 0.0679504 0.0768519 0.0610877 0.0694298 0.0768519 0.0857533 0.0559848 0.0544344 0.0733991 0.0717845 0.0733991 0.0717845 0.0966436 0.0958678 0.0717845 0.0712591 0.0958678 0.0964725 0 0 0.0018295 0.0030032 0 0 0.0030032 0.00417691 0.0018295 0.0030032 0.00365899 0.00600641 0.0030032 0.00417691 0.00600641 0.00835383 0.00365899 0.00600641 0.00485648 0.00692738 0.00600641 0.00835383 0.00692738 0.00899827 0.00485648 0.00692738 0.00605397 0.00784835 0.00692738 0.00899827 0.00784835 0.00964272 0.0712591 0.0718853 0.0964725 0.0978867 0.0718853 0.0734561 0.0978867 0.100168 0.0186378 0.0341694 0.0199435 0.0324615 0.0341694 0.0497009 0.0324615 0.0449794 0.0199435 0.0324615 0.0212492 0.0307536 0.0324615 0.0449794 0.0307536 0.0402579 0.00835383 0.0148015 0.00899827 0.0147843 0.0148015 0.0212492 0.0147843 0.0205704 0.00899827 0.0147843 0.00964272 0.0147671 0.0147843 0.0205704 0.0147671 0.0198915 0 0.00183001 0 0.00300417 0.00183001 0.00366002 0.00300417 0.00600835 0 0.00300417 0 0.00417833 0.00300417 0.00600835 0.00417833 0.00835667 0.00366002 0.00485811 0.00600835 0.00692993 0.00485811 0.00605619 0.00692993 0.00785151 0.00600835 0.00692993 0.00835667 0.00900175 0.00692993 0.00785151 0.00900175 0.00964683 0.0807948 0.100604 0.1006 0.120183 0.00835667 0.00900175 0.0148061 0.0147906 0.00900175 0.00964683 0.0147906 0.0147751 0.0148061 0.0147906 0.0212555 0.0205794 0.0147906 0.0147751 0.0205794 0.0199033 0.00417691 0.0120468 0.00835383 0.0148015 0.0120468 0.0199435 0.0148015 0.0212492 0.0186378 0.0199467 0.0341694 0.0324661 0.0199467 0.0212555 0.0324661 0.0307629 0.0341694 0.0324661 0.0497009 0.0449855 0.0324661 0.0307629 0.0449855 0.0402702 0.00417833 0.00835667 0.0120491 0.0148061 0.0120491 0.0148061 0.0199467 0.0212555 0.0224806 0.0300109 0.0300107 0.0376672 0.0300109 0.0375412 0.0376672 0.0453237 0.0300107 0.0376672 0.0375408 0.0453235 0.0376672 0.0453237 0.0453235 0.0531063 0.288064 0.314304 0.292121 0.318243 0.314304 0.340543 0.318243 0.344365 0.292121 0.318243 0.296177 0.322182 0.318243 0.344365 0.322182 0.348187 0.340543 0.363191 0.344365 0.374739 0.363191 0.408767 0.374739 0.414681 0.344365 0.374739 0.348187 0.3798 0.374739 0.414681 0.3798 0.421178 0.348187 0.3798 0.353923 0.385293 0.3798 0.421178 0.385293 0.419117 0.353923 0.385293 0.359659 0.392045 0.385293 0.419117 0.392045 0.42443 0.421178 0.435329 0.419117 0.457092 0.435329 0.469052 0.457092 0.476818 0.419117 0.457092 0.42443 0.463994 0.457092 0.476818 0.463994 0.484584 0.408767 0.422694 0.414681 0.429463 0.422694 0.453521 0.429463 0.461286 0.414681 0.429463 0.421178 0.435329 0.429463 0.461286 0.435329 0.469052 0.42443 0.463994 0.431246 0.471149 0.463994 0.484584 0.471149 0.49235 0.431246 0.471149 0.438062 0.478504 0.471149 0.49235 0.478504 0.500115 0.296177 0.322182 0.300842 0.327383 0.322182 0.348187 0.327383 0.353923 0.300842 0.327383 0.305508 0.332583 0.327383 0.353923 0.332583 0.359659 0.438062 0.478504 0.444729 0.485877 0.478504 0.500115 0.485877 0.507881 0.444729 0.485877 0.451395 0.493252 0.485877 0.507881 0.493252 0.515647 0.305508 0.332583 0.309696 0.337362 0.332583 0.359659 0.337362 0.365029 0.309696 0.337362 0.313885 0.342141 0.337362 0.365029 0.342141 0.370398 0.451395 0.493252 0.458134 0.500641 0.493252 0.515647 0.500641 0.523413 0.458134 0.500641 0.464872 0.508065 0.500641 0.523413 0.508065 0.531178 0.313885 0.342141 0.318399 0.347258 0.342141 0.370398 0.347258 0.376118 0.318399 0.347258 0.322913 0.352375 0.347258 0.376118 0.352375 0.381838 0.464872 0.508065 0.471767 0.515514 0.508065 0.531178 0.515514 0.538944 0.471767 0.515514 0.478661 0.522972 0.515514 0.538944 0.522972 0.54671 0.359659 0.392045 0.365029 0.398137 0.392045 0.42443 0.398137 0.431246 0.365029 0.398137 0.370398 0.40423 0.398137 0.431246 0.40423 0.438062 0.340557 0.344378 0.363202 0.374749 0.344378 0.348198 0.374749 0.379809 0.363202 0.374749 0.408774 0.414688 0.374749 0.379809 0.414688 0.421184 0.348198 0.353933 0.379809 0.3853 0.353933 0.359668 0.3853 0.392052 0.379809 0.3853 0.421184 0.419122 0.3853 0.392052 0.419122 0.424435 0.421184 0.419122 0.435332 0.457094 0.419122 0.424435 0.457094 0.463996 0.435332 0.457094 0.469052 0.476818 0.457094 0.463996 0.476818 0.484584 0.370398 0.40423 0.376118 0.410423 0.40423 0.438062 0.410423 0.444729 0.376118 0.410423 0.381838 0.416617 0.410423 0.444729 0.416617 0.451395 0.408774 0.414688 0.422698 0.429466 0.414688 0.421184 0.429466 0.435332 0.422698 0.429466 0.453521 0.461286 0.429466 0.435332 0.461286 0.469052 0.424435 0.431251 0.463996 0.471151 0.431251 0.438067 0.471151 0.478507 0.463996 0.471151 0.484584 0.49235 0.471151 0.478507 0.49235 0.500115 0.438067 0.444734 0.478507 0.48588 0.444734 0.451401 0.48588 0.493255 0.478507 0.48588 0.500115 0.507881 0.48588 0.493255 0.507881 0.515647 0.322913 0.352375 0.327866 0.357864 0.352375 0.381838 0.357864 0.387862 0.327866 0.357864 0.332819 0.363352 0.357864 0.387862 0.363352 0.393886 0.332819 0.363352 0.337802 0.368714 0.363352 0.393886 0.368714 0.399625 0.337802 0.368714 0.342784 0.374075 0.368714 0.399625 0.374075 0.405365 0.451401 0.45814 0.493255 0.500645 0.45814 0.464879 0.500645 0.508068 0.493255 0.500645 0.515647 0.523413 0.500645 0.508068 0.523413 0.531178 0.464879 0.471773 0.508068 0.515518 0.471773 0.478667 0.515518 0.522974 0.508068 0.515518 0.531178 0.538944 0.515518 0.522974 0.538944 0.54671 0.171989 0.182165 0.163552 0.173126 0.182165 0.193544 0.173126 0.185116 0.163552 0.173126 0.156182 0.166953 0.173126 0.185116 0.166953 0.177724 0.478661 0.522972 0.485374 0.530422 0.522972 0.54671 0.530422 0.554476 0.485374 0.530422 0.492088 0.537932 0.530422 0.554476 0.537932 0.562241 0.381838 0.416617 0.387862 0.422998 0.416617 0.451395 0.422998 0.458134 0.387862 0.422998 0.393886 0.429379 0.422998 0.458134 0.429379 0.464872 0.492088 0.537932 0.499872 0.545492 0.537932 0.562241 0.545492 0.570007 0.499872 0.545492 0.507655 0.553143 0.545492 0.570007 0.553143 0.577773 0.393886 0.429379 0.399625 0.435696 0.429379 0.464872 0.435696 0.471767 0.399625 0.435696 0.405365 0.442013 0.435696 0.471767 0.442013 0.478661 0.507655 0.553143 0.514905 0.560775 0.553143 0.577773 0.560775 0.585539 0.514905 0.560775 0.521754 0.568406 0.560775 0.585539 0.568406 0.593304 0.288085 0.292139 0.314321 0.318258 0.292139 0.296193 0.318258 0.322195 0.314321 0.318258 0.340557 0.344378 0.318258 0.322195 0.344378 0.348198 0.521754 0.568406 0.529261 0.576083 0.568406 0.593304 0.576083 0.60107 0.529261 0.576083 0.536768 0.583906 0.576083 0.60107 0.583906 0.608836 0.296193 0.300857 0.322195 0.327395 0.300857 0.30552 0.327395 0.332594 0.322195 0.327395 0.348198 0.353933 0.327395 0.332594 0.353933 0.359668 0.536768 0.583906 0.544693 0.591796 0.583906 0.608836 0.591796 0.616602 0.544693 0.591796 0.552549 0.599755 0.591796 0.616602 0.599755 0.624368 0.193544 0.199148 0.185116 0.193808 0.199148 0.206177 0.193808 0.204262 0.185116 0.193808 0.177724 0.190036 0.193808 0.204262 0.190036 0.202348 0.552549 0.599755 0.560503 0.60775 0.599755 0.624368 0.60775 0.632133 0.560503 0.60775 0.568447 0.615928 0.60775 0.632133 0.615928 0.639899 0.30552 0.309709 0.332594 0.337373 0.309709 0.313897 0.337373 0.342152 0.332594 0.337373 0.359668 0.365038 0.337373 0.342152 0.365038 0.370407 0.313897 0.318412 0.342152 0.34727 0.318412 0.322926 0.34727 0.352387 0.342152 0.34727 0.370407 0.376128 0.34727 0.352387 0.376128 0.381848 0.568447 0.615928 0.577553 0.624307 0.615928 0.639899 0.624307 0.647665 0.577553 0.624307 0.586658 0.632943 0.624307 0.647665 0.632943 0.655431 0.50495 0.545804 0.516481 0.554516 0.545804 0.586658 0.554516 0.595057 0.516481 0.554516 0.528197 0.558218 0.554516 0.595057 0.558218 0.620096 0.586658 0.632943 0.595057 0.642372 0.632943 0.655431 0.642372 0.663196 0.595057 0.642372 0.620096 0.631012 0.642372 0.663196 0.631012 0.670962 0.322926 0.327881 0.352387 0.357877 0.327881 0.332836 0.357877 0.