# vtk DataFile Version 3.0
#This file was generated by the deal.II library on 2015/4/9 at 19:23:45
ASCII
DATASET UNSTRUCTURED_GRID

POINTS 1396 double
-0.5 -0.5 0
-0.25 -0.5 0
-0.5 -0.25 0
-0.25 -0.25 0
-0.25 -0.5 0
0 -0.5 0
-0.25 -0.25 0
0 -0.25 0
-0.5 -0.25 0
-0.25 -0.25 0
-0.5 0 0
-0.25 0 0
-0.25 -0.25 0
0 -0.25 0
-0.25 0 0
0 0 0
0 -0.5 0
0.25 -0.5 0
0 -0.25 0
0.25 -0.25 0
0.25 -0.5 0
0.5 -0.5 0
0.25 -0.25 0
0.5 -0.25 0
0 -0.25 0
0.25 -0.25 0
0 0 0
0.25 0 0
0.25 -0.25 0
0.5 -0.25 0
0.25 0 0
0.5 0 0
-0.5 0 0
-0.25 0 0
-0.5 0.25 0
-0.25 0.25 0
-0.25 0 0
0 0 0
-0.25 0.25 0
0 0.25 0
-0.5 0.25 0
-0.25 0.25 0
-0.5 0.5 0
-0.25 0.5 0
-0.25 0.25 0
0 0.25 0
-0.25 0.5 0
0 0.5 0
0 0 0
0.25 0 0
0 0.25 0
0.25 0.25 0
0.25 0 0
0.5 0 0
0.25 0.25 0
0.5 0.25 0
0 0.25 0
0.25 0.25 0
0 0.5 0
0.25 0.5 0
0.25 0.25 0
0.5 0.25 0
0.25 0.5 0
0.5 0.5 0
0.5 0 0
0.75 0 0
0.5 0.25 0
0.75 0.25 0
0.25 0.5 0
0.5 0.5 0
0.25 0.75 0
0.5 0.75 0
-0.375 -1 0
-0.25 -1 0
-0.375 -0.875 0
-0.25 -0.875 0
-0.375 -0.875 0
-0.25 -0.875 0
-0.375 -0.75 0
-0.25 -0.75 0
-1 -0.375 0
-0.875 -0.375 0
-1 -0.25 0
-0.875 -0.25 0
-0.875 -0.375 0
-0.75 -0.375 0
-0.875 -0.25 0
-0.75 -0.25 0
0 -1 0
0.125 -1 0
0 -0.875 0
0.125 -0.875 0
0 -0.875 0
0.125 -0.875 0
0 -0.75 0
0.125 -0.75 0
0.375 -1 0
0.5 -1 0
0.375 -0.875 0
0.5 -0.875 0
0.375 -0.875 0
0.5 -0.875 0
0.375 -0.75 0
0.5 -0.75 0
0.75 -0.5 0
0.875 -0.5 0
0.75 -0.375 0
0.875 -0.375 0
0.875 -0.5 0
1 -0.5 0
0.875 -0.375 0
1 -0.375 0
0.875 -0.375 0
1 -0.375 0
0.875 -0.25 0
1 -0.25 0
0.5 -0.25 0
0.625 -0.25 0
0.5 -0.125 0
0.625 -0.125 0
0.625 -0.25 0
0.75 -0.25 0
0.625 -0.125 0
0.75 -0.125 0
0.5 -0.125 0
0.625 -0.125 0
0.5 0 0
0.625 0 0
0.625 -0.125 0
0.75 -0.125 0
0.625 0 0
0.75 0 0
0.75 -0.125 0
0.875 -0.125 0
0.75 0 0
0.875 0 0
0.875 -0.125 0
1 -0.125 0
0.875 0 0
1 0 0
-1 0 0
-0.875 0 0
-1 0.125 0
-0.875 0.125 0
-0.875 0 0
-0.75 0 0
-0.875 0.125 0
-0.75 0.125 0
-1 0.375 0
-0.875 0.375 0
-1 0.5 0
-0.875 0.5 0
-0.875 0.375 0
-0.75 0.375 0
-0.875 0.5 0
-0.75 0.5 0
-0.5 0.5 0
-0.375 0.5 0
-0.5 0.625 0
-0.375 0.625 0
-0.375 0.5 0
-0.25 0.5 0
-0.375 0.625 0
-0.25 0.625 0
-0.5 0.625 0
-0.375 0.625 0
-0.5 0.75 0
-0.375 0.75 0
-0.375 0.625 0
-0.25 0.625 0
-0.375 0.75 0
-0.25 0.75 0
-0.25 0.5 0
-0.125 0.5 0
-0.25 0.625 0
-0.125 0.625 0
-0.125 0.5 0
0 0.5 0
-0.125 0.625 0
0 0.625 0
-0.25 0.625 0
-0.125 0.625 0
-0.25 0.75 0
-0.125 0.75 0
-0.125 0.625 0
0 0.625 0
-0.125 0.75 0
0 0.75 0
-0.5 0.75 0
-0.375 0.75 0
-0.5 0.875 0
-0.375 0.875 0
-0.5 0.875 0
-0.375 0.875 0
-0.5 1 0
-0.375 1 0
-0.125 0.75 0
0 0.75 0
-0.125 0.875 0
0 0.875 0
-0.125 0.875 0
0 0.875 0
-0.125 1 0
0 1 0
-0.75 -1 0
-0.625 -1 0
-0.75 -0.875 0
-0.625 -0.875 0
-1 -0.75 0
-0.875 -0.75 0
-1 -0.625 0
-0.875 -0.625 0
-0.625 -0.75 0
-0.5 -0.75 0
-0.625 -0.625 0
-0.5 -0.625 0
-0.75 -0.625 0
-0.625 -0.625 0
-0.75 -0.5 0
-0.625 -0.5 0
-0.625 -0.625 0
-0.5 -0.625 0
-0.625 -0.5 0
-0.5 -0.5 0
0.625 -1 0
0.75 -1 0
0.625 -0.875 0
0.75 -0.875 0
0.5 -0.75 0
0.625 -0.75 0
0.5 -0.625 0
0.625 -0.625 0
0.5 -0.625 0
0.625 -0.625 0
0.5 -0.5 0
0.625 -0.5 0
0.625 -0.625 0
0.75 -0.625 0
0.625 -0.5 0
0.75 -0.5 0
0.875 -0.75 0
1 -0.75 0
0.875 -0.625 0
1 -0.625 0
-1 0.625 0
-0.875 0.625 0
-1 0.75 0
-0.875 0.75 0
-0.75 0.5 0
-0.625 0.5 0
-0.75 0.625 0
-0.625 0.625 0
-0.625 0.5 0
-0.5 0.5 0
-0.625 0.625 0
-0.5 0.625 0
-0.625 0.625 0
-0.5 0.625 0
-0.625 0.75 0
-0.5 0.75 0
-0.75 0.875 0
-0.625 0.875 0
-0.75 1 0
-0.625 1 0
-0.25 -1 0
-0.125 -1 0
-0.25 -0.875 0
-0.125 -0.875 0
-0.125 -1 0
0 -1 0
-0.125 -0.875 0
0 -0.875 0
-0.25 -0.875 0
-0.125 -0.875 0
-0.25 -0.75 0
-0.125 -0.75 0
-0.125 -0.875 0
0 -0.875 0
-0.125 -0.75 0
0 -0.75 0
0.75 0 0
0.875 0 0
0.75 0.125 0
0.875 0.125 0
0.875 0 0
1 0 0
0.875 0.125 0
1 0.125 0
0.75 0.125 0
0.875 0.125 0
0.75 0.25 0
0.875 0.25 0
0.875 0.125 0
1 0.125 0
0.875 0.25 0
1 0.25 0
0.5 0.25 0
0.625 0.25 0
0.5 0.375 0
0.625 0.375 0
0.625 0.25 0
0.75 0.25 0
0.625 0.375 0
0.75 0.375 0
0.5 0.375 0
0.625 0.375 0
0.5 0.5 0
0.625 0.5 0
0.625 0.375 0
0.75 0.375 0
0.625 0.5 0
0.75 0.5 0
0.75 0.375 0
0.875 0.375 0
0.75 0.5 0
0.875 0.5 0
0.875 0.375 0
1 0.375 0
0.875 0.5 0
1 0.5 0
0 0.5 0
0.125 0.5 0
0 0.625 0
0.125 0.625 0
0.125 0.5 0
0.25 0.5 0
0.125 0.625 0
0.25 0.625 0
0 0.625 0
0.125 0.625 0
0 0.75 0
0.125 0.75 0
0.125 0.625 0
0.25 0.625 0
0.125 0.75 0
0.25 0.75 0
-0.5 -0.75 0
-0.375 -0.75 0
-0.5 -0.625 0
-0.375 -0.625 0
-0.375 -0.75 0
-0.25 -0.75 0
-0.375 -0.625 0
-0.25 -0.625 0
-0.5 -0.625 0
-0.375 -0.625 0
-0.5 -0.5 0
-0.375 -0.5 0
-0.375 -0.625 0
-0.25 -0.625 0
-0.375 -0.5 0
-0.25 -0.5 0
0.125 0.75 0
0.25 0.75 0
0.125 0.875 0
0.25 0.875 0
0.125 0.875 0
0.25 0.875 0
0.125 1 0
0.25 1 0
0.5 0.5 0
0.625 0.5 0
0.5 0.625 0
0.625 0.625 0
0.625 0.5 0
0.75 0.5 0
0.625 0.625 0
0.75 0.625 0
0.5 0.625 0
0.625 0.625 0
0.5 0.75 0
0.625 0.75 0
0.875 0.625 0
1 0.625 0
0.875 0.75 0
1 0.75 0
0.5 0.75 0
0.625 0.75 0
0.5 0.875 0
0.625 0.875 0
0.5 0.875 0
0.625 0.875 0
0.5 1 0
0.625 1 0
0.625 0.875 0
0.75 0.875 0
0.625 1 0
0.75 1 0
-0.25 -0.75 0
-0.125 -0.75 0
-0.25 -0.625 0
-0.125 -0.625 0
-0.125 -0.75 0
0 -0.75 0
-0.125 -0.625 0
0 -0.625 0
-0.25 -0.625 0
-0.125 -0.625 0
-0.25 -0.5 0
-0.125 -0.5 0
-0.125 -0.625 0
0 -0.625 0
-0.125 -0.5 0
0 -0.5 0
-0.75 -0.5 0
-0.625 -0.5 0
-0.75 -0.375 0
-0.625 -0.375 0
-0.625 -0.5 0
-0.5 -0.5 0
-0.625 -0.375 0
-0.5 -0.375 0
-0.75 -0.375 0
-0.625 -0.375 0
-0.75 -0.25 0
-0.625 -0.25 0
-0.625 -0.375 0
-0.5 -0.375 0
-0.625 -0.25 0
-0.5 -0.25 0
-1 -0.25 0
-0.875 -0.25 0
-1 -0.125 0
-0.875 -0.125 0
-0.875 -0.25 0
-0.75 -0.25 0
-0.875 -0.125 0
-0.75 -0.125 0
-1 -0.125 0
-0.875 -0.125 0
-1 0 0
-0.875 0 0
-0.875 -0.125 0
-0.75 -0.125 0
-0.875 0 0
-0.75 0 0
-0.75 -0.25 0
-0.625 -0.25 0
-0.75 -0.125 0
-0.625 -0.125 0
-0.625 -0.25 0
-0.5 -0.25 0
-0.625 -0.125 0
-0.5 -0.125 0
-0.75 -0.125 0
-0.625 -0.125 0
-0.75 0 0
-0.625 0 0
-0.625 -0.125 0
-0.5 -0.125 0
-0.625 0 0
-0.5 0 0
0 -0.75 0
0.125 -0.75 0
0 -0.625 0
0.125 -0.625 0
0.125 -0.75 0
0.25 -0.75 0
0.125 -0.625 0
0.25 -0.625 0
0 -0.625 0
0.125 -0.625 0
0 -0.5 0
0.125 -0.5 0
0.125 -0.625 0
0.25 -0.625 0
0.125 -0.5 0
0.25 -0.5 0
0.25 -0.75 0
0.375 -0.75 0
0.25 -0.625 0
0.375 -0.625 0
0.375 -0.75 0
0.5 -0.75 0
0.375 -0.625 0
0.5 -0.625 0
0.25 -0.625 0
0.375 -0.625 0
0.25 -0.5 0
0.375 -0.5 0
0.375 -0.625 0
0.5 -0.625 0
0.375 -0.5 0
0.5 -0.5 0
0.5 -0.5 0
0.625 -0.5 0
0.5 -0.375 0
0.625 -0.375 0
0.625 -0.5 0
0.75 -0.5 0
0.625 -0.375 0
0.75 -0.375 0
0.5 -0.375 0
0.625 -0.375 0
0.5 -0.25 0
0.625 -0.25 0
0.625 -0.375 0
0.75 -0.375 0
0.625 -0.25 0
0.75 -0.25 0
-0.75 0 0
-0.625 0 0
-0.75 0.125 0
-0.625 0.125 0
-0.625 0 0
-0.5 0 0
-0.625 0.125 0
-0.5 0.125 0
-0.75 0.125 0
-0.625 0.125 0
-0.75 0.25 0
-0.625 0.25 0
-0.625 0.125 0
-0.5 0.125 0
-0.625 0.25 0
-0.5 0.25 0
-0.75 0.25 0
-0.625 0.25 0
-0.75 0.375 0
-0.625 0.375 0
-0.625 0.25 0
-0.5 0.25 0
-0.625 0.375 0
-0.5 0.375 0
-0.75 0.375 0
-0.625 0.375 0
-0.75 0.5 0
-0.625 0.5 0
-0.625 0.375 0
-0.5 0.375 0
-0.625 0.5 0
-0.5 0.5 0
-1 -1 0
-0.875 -1 0
-1 -0.875 0
-0.875 -0.875 0
-0.875 -1 0
-0.75 -1 0
-0.875 -0.875 0
-0.75 -0.875 0
-1 -0.875 0
-0.875 -0.875 0
-1 -0.75 0
-0.875 -0.75 0
-0.875 -0.875 0
-0.75 -0.875 0
-0.875 -0.75 0
-0.75 -0.75 0
0.75 -1 0
0.875 -1 0
0.75 -0.875 0
0.875 -0.875 0
0.875 -1 0
1 -1 0
0.875 -0.875 0
1 -0.875 0
0.75 -0.875 0
0.875 -0.875 0
0.75 -0.75 0
0.875 -0.75 0
0.875 -0.875 0
1 -0.875 0
0.875 -0.75 0
1 -0.75 0
-1 0.75 0
-0.875 0.75 0
-1 0.875 0
-0.875 0.875 0
-0.875 0.75 0
-0.75 0.75 0
-0.875 0.875 0
-0.75 0.875 0
-1 0.875 0
-0.875 0.875 0
-1 1 0
-0.875 1 0
-0.875 0.875 0
-0.75 0.875 0
-0.875 1 0
-0.75 1 0
0.25 0.75 0
0.375 0.75 0
0.25 0.875 0
0.375 0.875 0
0.375 0.75 0
0.5 0.75 0
0.375 0.875 0
0.5 0.875 0
0.25 0.875 0
0.375 0.875 0
0.25 1 0
0.375 1 0
0.375 0.875 0
0.5 0.875 0
0.375 1 0
0.5 1 0
0.75 0.75 0
0.875 0.75 0
0.75 0.875 0
0.875 0.875 0
0.875 0.75 0
1 0.75 0
0.875 0.875 0
1 0.875 0
0.75 0.875 0
0.875 0.875 0
0.75 1 0
0.875 1 0
0.875 0.875 0
1 0.875 0
0.875 1 0
1 1 0
-0.5 -1 0
-0.4375 -1 0
-0.5 -0.9375 0
-0.4375 -0.9375 0
-0.4375 -1 0
-0.375 -1 0
-0.4375 -0.9375 0
-0.375 -0.9375 0
-0.5 -0.9375 0
-0.4375 -0.9375 0
-0.5 -0.875 0
-0.4375 -0.875 0
-0.4375 -0.9375 0
-0.375 -0.9375 0
-0.4375 -0.875 0
-0.375 -0.875 0
-0.5 -0.875 0
-0.4375 -0.875 0
-0.5 -0.8125 0
-0.4375 -0.8125 0
-0.4375 -0.875 0
-0.375 -0.875 0
-0.4375 -0.8125 0
-0.375 -0.8125 0
-0.5 -0.8125 0
-0.4375 -0.8125 0
-0.5 -0.75 0
-0.4375 -0.75 0
-0.4375 -0.8125 0
-0.375 -0.8125 0
-0.4375 -0.75 0
-0.375 -0.75 0
-1 -0.5 0
-0.9375 -0.5 0
-1 -0.4375 0
-0.9375 -0.4375 0
-0.9375 -0.5 0
-0.875 -0.5 0
-0.9375 -0.4375 0
-0.875 -0.4375 0
-1 -0.4375 0
-0.9375 -0.4375 0
-1 -0.375 0
-0.9375 -0.375 0
-0.9375 -0.4375 0
-0.875 -0.4375 0
-0.9375 -0.375 0
-0.875 -0.375 0
-0.875 -0.5 0
-0.8125 -0.5 0
-0.875 -0.4375 0
-0.8125 -0.4375 0
-0.8125 -0.5 0
-0.75 -0.5 0
-0.8125 -0.4375 0
-0.75 -0.4375 0
-0.875 -0.4375 0
-0.8125 -0.4375 0
-0.875 -0.375 0
-0.8125 -0.375 0
-0.8125 -0.4375 0
-0.75 -0.4375 0
-0.8125 -0.375 0
-0.75 -0.375 0
0.125 -1 0
0.1875 -1 0
0.125 -0.9375 0
0.1875 -0.9375 0
0.1875 -1 0
0.25 -1 0
0.1875 -0.9375 0
0.25 -0.9375 0
0.125 -0.9375 0
0.1875 -0.9375 0
0.125 -0.875 0
0.1875 -0.875 0
0.1875 -0.9375 0
0.25 -0.9375 0
0.1875 -0.875 0
0.25 -0.875 0
0.125 -0.875 0
0.1875 -0.875 0
0.125 -0.8125 0
0.1875 -0.8125 0
0.1875 -0.875 0
0.25 -0.875 0
0.1875 -0.8125 0
0.25 -0.8125 0
0.125 -0.8125 0
0.1875 -0.8125 0
0.125 -0.75 0
0.1875 -0.75 0
0.1875 -0.8125 0
0.25 -0.8125 0
0.1875 -0.75 0
0.25 -0.75 0
0.25 -1 0
0.3125 -1 0
0.25 -0.9375 0
0.3125 -0.9375 0
0.3125 -1 0
0.375 -1 0
0.3125 -0.9375 0
0.375 -0.9375 0
0.25 -0.9375 0
0.3125 -0.9375 0
0.25 -0.875 0
0.3125 -0.875 0
0.3125 -0.9375 0
0.375 -0.9375 0
0.3125 -0.875 0
0.375 -0.875 0
0.25 -0.875 0
0.3125 -0.875 0
0.25 -0.8125 0
0.3125 -0.8125 0
0.3125 -0.875 0
0.375 -0.875 0
0.3125 -0.8125 0
0.375 -0.8125 0
0.25 -0.8125 0
0.3125 -0.8125 0
0.25 -0.75 0
0.3125 -0.75 0
0.3125 -0.8125 0
0.375 -0.8125 0
0.3125 -0.75 0
0.375 -0.75 0
0.75 -0.375 0
0.8125 -0.375 0
0.75 -0.3125 0
0.8125 -0.3125 0
0.8125 -0.375 0
0.875 -0.375 0
0.8125 -0.3125 0
0.875 -0.3125 0
[...]
POINT_DATA 1396
SCALARS U double 1
LOOKUP_TABLE default
-0.102748 -0.0523431 -0.0523297 0.00142947 -0.0523431 -0.0535048 0.00142947 0.00202364 -0.0523297 0.00142947 -0.0535439 0.00196294 0.00142947 0.00202364 0.00196294 0.00223756 -0.0535048 -0.0514074 0.00202364 0.00240895 -0.0514074 -0.100759 0.00240895 -0.0521272 0.00202364 0.00240895 0.00223756 0.00471404 0.00240895 -0.0521272 0.00471404 -0.0413761 -0.0535439 0.00196294 -0.0512586 0.00112816 0.00196294 0.00223756 0.00112816 0.00297172 -0.0512586 0.00112816 -0.100866 -0.0508616 0.00112816 0.00297172 -0.0508616 -0.0530861 0.00223756 0.00471404 0.00297172 0.00720574 0.00471404 -0.0413761 0.00720574 -0.0377063 0.00297172 0.00720574 -0.0530861 -0.0402393 0.00720574 -0.0377063 -0.0402393 -0.0912989 -0.0413761 -0.335731 -0.0377063 -0.334722 -0.0402393 -0.0912989 -0.3362 -0.371713 -1 -1 -0.649002 -0.648052 -0.649002 -0.648052 -0.36341 -0.359215 -1 -0.649002 -1 -0.648053 -0.649002 -0.36341 -0.648053 -0.359216 -1 -1 -0.646964 -0.643209 -0.646964 -0.643209 -0.357231 -0.353472 -1 -1 -0.64584 -0.661029 -0.64584 -0.661029 -0.359991 -0.385276 -0.38495 -0.660846 -0.359083 -0.645452 -0.660846 -1 -0.645452 -1 -0.645452 -1 -0.644305 -1 -0.0521272 -0.161002 -0.0467517 -0.159183 -0.161002 -0.354081 -0.159183 -0.351339 -0.0467517 -0.159183 -0.0413761 -0.188554 -0.159183 -0.351339 -0.188554 -0.335731 -0.351339 -0.63876 -0.335731 -0.638396 -0.63876 -1 -0.638396 -1 -1 -0.646964 -1 -0.64321 -0.646964 -0.357228 -0.64321 -0.353466 -1 -0.645846 -1 -0.66103 -0.645846 -0.359998 -0.66103 -0.385284 -0.100866 -0.0758639 -0.207083 -0.171365 -0.0758639 -0.0508616 -0.171365 -0.161653 -0.207083 -0.171365 -0.385136 -0.359453 -0.171365 -0.161653 -0.359453 -0.353529 -0.0508616 -0.0519739 -0.161653 -0.158738 -0.0519739 -0.0530861 -0.158738 -0.158106 -0.161653 -0.158738 -0.353529 -0.350005 -0.158738 -0.158106 -0.350005 -0.350491 -0.385136 -0.359453 -0.660909 -0.645435 -0.660909 -0.645435 -1 -1 -0.350005 -0.350491 -0.640458 -0.640413 -0.640458 -0.640413 -1 -1 -1 -1 -0.766049 -0.700072 -1 -0.766049 -1 -0.700071 -0.453718 -0.388789 -0.290706 -0.209815 -0.453718 -0.290706 -0.388788 -0.209814 -0.290706 -0.209815 -0.209814 -0.102748 -1 -1 -0.699284 -0.765745 -0.385276 -0.452785 -0.207177 -0.288211 -0.207177 -0.288211 -0.100759 -0.207054 -0.288211 -0.452771 -0.207054 -0.38495 -0.765737 -1 -0.699277 -1 -1 -0.699274 -1 -0.765726 -0.385284 -0.207198 -0.452778 -0.288247 -0.207198 -0.100866 -0.288247 -0.207083 -0.288247 -0.207083 -0.452744 -0.385136 -0.765723 -0.699248 -1 -1 -1 -1 -0.648052 -0.648182 -1 -1 -0.648182 -0.646964 -0.648052 -0.648182 -0.359215 -0.358672 -0.648182 -0.646964 -0.358672 -0.357231 -0.335731 -0.638396 -0.335227 -0.635938 -0.638396 -1 -0.635938 -1 -0.335227 -0.635938 -0.334722 -0.63635 -0.635938 -1 -0.63635 -1 -0.0377063 -0.186214 -0.0645026 -0.167801 -0.186214 -0.334722 -0.167801 -0.359544 -0.0645026 -0.167801 -0.0912989 -0.207238 -0.167801 -0.359544 -0.207238 -0.384796 -0.359544 -0.642733 -0.384796 -0.660717 -0.642733 -1 -0.660717 -1 -0.0530861 -0.0466627 -0.158106 -0.158376 -0.0466627 -0.0402393 -0.158376 -0.18822 -0.158106 -0.158376 -0.350491 -0.352046 -0.158376 -0.18822 -0.352046 -0.3362 -0.388789 -0.36341 -0.209815 -0.174337 -0.36341 -0.359215 -0.174337 -0.165026 -0.209815 -0.174337 -0.102748 -0.0775455 -0.174337 -0.165026 -0.0775455 -0.0523431 -0.352046 -0.3362 -0.638907 -0.640752 -0.638907 -0.640752 -1 -1 -0.0912989 -0.207238 -0.231506 -0.289675 -0.207238 -0.384796 -0.289675 -0.453219 -0.231506 -0.289675 -0.371713 -0.45331 -0.699475 -1 -0.766348 -1 -0.371713 -0.45331 -0.66028 -0.696054 -0.66028 -0.696054 -1 -1 -0.696054 -0.766995 -1 -1 -0.359215 -0.358672 -0.165026 -0.162474 -0.358672 -0.357231 -0.162474 -0.161888 -0.165026 -0.162474 -0.0523431 -0.0529239 -0.162474 -0.161888 -0.0529239 -0.0535048 -0.388788 -0.209814 -0.36341 -0.174334 -0.209814 -0.102748 -0.174334 -0.0775388 -0.36341 -0.174334 -0.359216 -0.165026 -0.174334 -0.0775388 -0.165026 -0.0523297 -1 -0.648053 -1 -0.648182 -0.648053 -0.359216 -0.648182 -0.358673 -1 -0.648182 -1 -0.646964 -0.648182 -0.358673 -0.646964 -0.357228 -0.359216 -0.165026 -0.358673 -0.162477 -0.165026 -0.0523297 -0.162477 -0.0529368 -0.358673 -0.162477 -0.357228 -0.161881 -0.162477 -0.0529368 -0.161881 -0.0535439 -0.357231 -0.353472 -0.161888 -0.160816 -0.353472 -0.354874 -0.160816 -0.162707 -0.161888 -0.160816 -0.0535048 -0.0524561 -0.160816 -0.162707 -0.0524561 -0.0514074 -0.354874 -0.359991 -0.162707 -0.171753 -0.359991 -0.385276 -0.171753 -0.207177 -0.162707 -0.171753 -0.0514074 -0.076083 -0.171753 -0.207177 -0.076083 -0.100759 -0.100759 -0.207054 -0.0764429 -0.171284 -0.207054 -0.38495 -0.171284 -0.359083 -0.0764429 -0.171284 -0.0521272 -0.161002 -0.171284 -0.359083 -0.161002 -0.354081 -0.357228 -0.161881 -0.353466 -0.160783 -0.161881 -0.0535439 -0.160783 -0.0524012 -0.353466 -0.160783 -0.354871 -0.162668 -0.160783 -0.0524012 -0.162668 -0.0512586 -0.354871 -0.162668 -0.359998 -0.171742 -0.162668 -0.0512586 -0.171742 -0.0760624 -0.359998 -0.171742 -0.385284 -0.207198 -0.171742 -0.0760624 -0.207198 -0.100866 -1 -1 -1 -0.872643 -1 -1 -0.872643 -0.766049 -1 -0.872643 -1 -0.766049 -0.872643 -0.766049 -0.766049 -0.577155 -1 -1 -0.765745 -0.872498 -1 -1 -0.872498 -1 -0.765745 -0.872498 -0.576608 -0.765737 -0.872498 -1 -0.765737 -1 -1 -0.765726 -1 -0.872477 -0.765726 -0.576575 -0.872477 -0.765723 -1 -0.872477 -1 -1 -0.872477 -0.765723 -1 -1 -0.3362 -0.353957 -0.640752 -0.643508 -0.353957 -0.371713 -0.643508 -0.66028 -0.640752 -0.643508 -1 -1 -0.643508 -0.66028 -1 -1 -0.577388 -0.766348 -0.766995 -0.872801 -0.766348 -1 -0.872801 -1 -0.766995 -0.872801 -1 -1 -0.872801 -1 -1 -1 -1 -1 -0.827521 -0.830332 -1 -1 -0.830332 -0.824501 -0.827521 -0.830332 -0.666685 -0.653033 -0.830332 -0.824501 -0.653033 -0.649002 -0.666685 -0.653033 -0.521554 -0.50817 -0.653033 -0.649002 -0.50817 -0.506206 -0.521554 -0.50817 -0.388789 -0.376099 -0.50817 -0.506206 -0.376099 -0.36341 -1 -0.827521 -1 -0.830332 -0.827521 -0.666685 -0.830332 -0.653033 -1 -0.830332 -1 -0.824501 -0.830332 -0.653033 -0.824501 -0.649002 -0.666685 -0.521554 -0.653033 -0.50817 -0.521554 -0.388788 -0.50817 -0.376099 -0.653033 -0.50817 -0.649002 -0.506206 -0.50817 -0.376099 -0.506206 -0.36341 -1 -1 -0.821605 -0.824665 -1 -1 -0.824665 -0.816912 -0.821605 -0.824665 -0.643209 -0.642008 -0.824665 -0.816912 -0.642008 -0.646481 -0.643209 -0.642008 -0.49834 -0.492036 -0.642008 -0.646481 -0.492036 -0.492925 -0.49834 -0.492036 -0.353472 -0.354173 -0.492036 -0.492925 -0.354173 -0.354874 -1 -1 -0.816912 -0.825108 -1 -1 -0.825108 -0.82292 -0.816912 -0.825108 -0.646481 -0.643006 -0.825108 -0.82292 -0.643006 -0.64584 -0.646481 -0.643006 -0.492925 -0.493784 -0.643006 -0.64584 -0.493784 -0.502916 -0.492925 -0.493784 -0.354874 -0.357432 -0.493784 -0.502916 -0.357432 -0.359991 -0.359083 -0.502268 -0.356582 -0.488143 -0.502268 -0.645452 -0.488143 -0.644878 -0.356582 -0.488143 -0.354081 -0.487896 -0.488143 -0.644878 -0.487896 -0.644305 -0.354081 -0.487896 -0.35271 -0.490876 -0.487896 -0.644305 -0.490876 -0.637216 -0.35271 -0.490876 -0.351339 -0.495049 -0.490876 -0.637216 -0.495049 -0.63876 -0.644305 -0.822152 -0.637216 -0.824864 -0.822152 -1 -0.824864 -1 -0.637216 -0.824864 -0.63876 -0.81938 -0.824864 -1 -0.81938 -1 -1 -0.821605 -1 -0.824667 -0.821605 -0.64321 -0.824667 -0.64201 -1 -0.824667 -1 -0.816915 -0.824667 -0.64201 -0.816915 -0.646485 -0.64321 -0.498338 -0.64201 -0.492035 -0.498338 -0.353466 -0.492035 -0.354168 -0.64201 -0.492035 -0.646485 -0.492926 -0.492035 -0.354168 -0.492926 -0.354871 -1 -0.816915 -1 -0.82511 -0.816915 -0.646485 -0.82511 -0.64301 -1 -0.82511 -1 -0.822923 -0.82511 -0.64301 -0.822923 -0.645846 -0.646485 -0.492926 -0.64301 -0.49379 -0.492926 -0.354871 -0.49379 -0.357435 -0.64301 -0.49379 -0.645846 -0.502922 -0.49379 -0.357435 -0.502922 -0.359998 -0.359453 -0.356491 -0.502444 -0.492919 -0.356491 -0.353529 -0.492919 -0.491444 -0.502444 -0.492919 -0.645435 -0.642347 -0.492919 -0.491444 -0.642347 -0.645366 -0.645435 -0.642347 -0.822718 -0.824741 -0.642347 -0.645366 -0.824741 -0.816299 -0.822718 -0.824741 -1 -1 -0.824741 -0.816299 -1 -1 -0.353529 -0.351767 -0.491444 -0.489982 -0.351767 -0.350005 -0.489982 -0.495232 -0.491444 -0.489982 -0.645366 -0.640285 -0.489982 -0.495232 -0.640285 -0.640458 -0.645366 -0.640285 -0.816299 -0.823699 -0.640285 -0.640458 -0.823699 -0.820229 -0.816299 -0.823699 -1 -1 -0.823699 -0.820229 -1 -1 -1 -1 -0.850036 -0.841593 -1 -1 -0.841593 -0.827521 -0.850036 -0.841593 -0.700072 -0.674711 -0.841593 -0.827521 -0.674711 -0.666685 -0.766049 -0.73306 -0.671602 -0.610882 -0.73306 -0.700072 -0.610882 -0.568842 -0.671602 -0.610882 -0.577155 -0.514772 -0.610882 -0.568842 -0.514772 -0.453718 -0.700072 -0.674711 -0.568842 -0.542272 -0.674711 -0.666685 -0.542272 -0.521554 -0.568842 -0.542272 -0.453718 -0.421254 -0.542272 -0.521554 -0.421254 -0.388789 -0.766049 -0.671602 -0.73306 -0.610882 -0.671602 -0.577155 -0.610882 -0.514772 -0.73306 -0.610882 -0.700071 -0.568842 -0.610882 -0.514772 -0.568842 -0.453718 -1 -0.850036 -1 -0.841593 -0.850036 -0.700071 -0.841593 -0.674711 -1 -0.841593 -1 -0.827521 -0.841593 -0.674711 -0.827521 -0.666685 -0.700071 -0.568842 -0.674711 -0.542272 -0.568842 -0.453718 -0.542272 -0.421253 -0.674711 -0.542272 -0.666685 -0.521554 -0.542272 -0.421253 -0.521554 -0.388788 -0.577155 -0.514772 -0.514772 -0.427245 -0.514772 -0.453718 -0.427245 -0.372212 -0.514772 -0.427245 -0.453718 -0.372212 -0.427245 -0.372212 -0.372212 -0.290706 -1 -1 -0.830514 -0.842748 -1 -1 -0.842748 -0.849642 -0.830514 -0.842748 -0.661029 -0.671976 -0.842748 -0.849642 -0.671976 -0.699284 -0.661029 -0.671976 -0.523152 -0.541237 -0.671976 -0.699284 -0.541237 -0.568224 -0.523152 -0.541237 -0.385276 -0.419031 -0.541237 -0.568224 -0.419031 -0.452785 -0.699284 -0.732515 -0.568224 -0.610047 -0.732515 -0.765745 -0.610047 -0.671176 -0.568224 -0.610047 -0.452785 -0.513484 -0.610047 -0.671176 -0.513484 -0.576608 -0.452785 -0.513484 -0.370498 -0.425777 -0.513484 -0.576608 -0.425777 -0.513456 -0.370498 -0.425777 -0.288211 -0.370491 -0.425777 -0.513456 -0.370491 -0.452771 -0.576608 -0.671172 -0.513456 -0.610015 -0.671172 -0.765737 -0.610015 -0.732507 -0.513456 -0.610015 -0.452771 -0.568188 -0.610015 -0.732507 -0.568188 -0.699277 -0.452771 -0.568188 -0.418861 -0.541129 -0.568188 -0.699277 -0.541129 -0.671833 -0.418861 -0.541129 -0.38495 -0.522898 -0.541129 -0.671833 -0.522898 -0.660846 -0.699277 -0.849639 -0.671833 -0.842684 -0.849639 -1 -0.842684 -1 -0.671833 -0.842684 -0.660846 -0.830423 -0.842684 -1 -0.830423 -1 -1 -0.830515 -1 -0.842745 -0.830515 -0.66103 -0.842745 -0.671971 -1 -0.842745 -1 -0.849637 -0.842745 -0.671971 -0.849637 -0.699274 -0.66103 -0.523157 -0.671971 -0.541238 -0.523157 -0.385284 -0.541238 -0.419031 -0.671971 -0.541238 -0.699274 -0.568214 -0.541238 -0.419031 -0.568214 -0.452778 -0.699274 -0.568214 -0.7325 -0.610029 -0.568214 -0.452778 -0.610029 -0.513467 -0.7325 -0.610029 -0.765726 -0.671151 -0.610029 -0.513467 -0.671151 -0.576575 -0.452778 -0.370512 -0.513467 -0.425782 -0.370512 -0.288247 -0.425782 -0.370496 -0.513467 -0.425782 -0.576575 -0.513459 -0.425782 -0.370496 -0.513459 -0.452744 -0.576575 -0.513459 -0.671149 -0.610016 -0.513459 -0.452744 -0.610016 -0.568179 -0.671149 -0.610016 -0.765723 -0.732485 -0.610016 -0.568179 -0.732485 -0.699248 -0.452744 -0.41894 -0.568179 -0.541161 -0.41894 -0.385136 -0.541161 -0.523022 -0.568179 -0.541161 -0.699248 -0.671915 -0.541161 -0.523022 -0.671915 -0.660909 -0.699248 -0.671915 -0.849624 -0.842714 -0.671915 -0.660909 -0.842714 -0.830455 -0.849624 -0.842714 -1 -1 -0.842714 -0.830455 -1 -1 -0.334722 -0.485536 -0.347133 -0.48735 -0.485536 -0.63635 -0.48735 -0.636919 -0.347133 -0.48735 -0.359544 -0.501138 -0.48735 -0.636919 -0.501138 -0.642733 -0.63635 -0.818175 -0.636919 -0.824483 -0.818175 -1 -0.824483 -1 -0.636919 -0.824483 -0.642733 -0.821366 -0.824483 -1 -0.821366 -1 -0.350491 -0.351269 -0.495452 -0.490533 -0.351269 -0.352046 -0.490533 -0.495477 -0.495452 -0.490533 -0.640413 -0.638359 -0.490533 -0.495477 -0.638359 -0.638907 -0.640413 -0.638359 -0.820206 -0.825003 -0.638359 -0.638907 -0.825003 -0.819454 -0.820206 -0.825003 -1 -1 -0.825003 -0.819454 -1 -1 -0.289675 -0.371447 -0.371493 -0.427195 -0.371447 -0.453219 -0.427195 -0.514358 -0.371493 -0.427195 -0.45331 -0.516243 -0.427195 -0.514358 -0.516243 -0.577388 -0.384796 -0.522756 -0.419008 -0.541453 -0.522756 -0.660717 -0.541453 -0.67194 -0.419008 -0.541453 -0.453219 -0.568825 -0.541453 -0.67194 -0.568825 -0.699475 -0.660717 -0.830358 -0.67194 -0.842756 -0.830358 -1 -0.842756 -1 -0.67194 -0.842756 -0.699475 -0.849737 -0.842756 -1 -0.849737 -1 -0.453219 -0.568825 -0.514358 -0.610819 -0.568825 -0.699475 -0.610819 -0.732912 -0.514358 -0.610819 -0.577388 -0.671868 -0.610819 -0.732912 -0.671868 -0.766348 -0.45331 -0.516243 -0.574682 -0.610165 -0.516243 -0.577388 -0.610165 -0.672192 -0.574682 -0.610165 -0.696054 -0.731525 -0.610165 -0.672192 -0.731525 -0.766995 
