# vtk DataFile Version 3.0
#This file was generated by the deal.II library on 2015/5/12 at 16: 3:46
ASCII
DATASET UNSTRUCTURED_GRID

POINTS 1780 double
-5 5 0
0 5 0
-5 10 0
0 10 0
0 0 0
5 0 0
0 5 0
5 5 0
5 0 0
10 0 0
5 5 0
10 5 0
0 5 0
5 5 0
0 10 0
5 10 0
5 5 0
10 5 0
5 10 0
10 10 0
0 -5 0
2.5 -5 0
0 -2.5 0
2.5 -2.5 0
2.5 -5 0
5 -5 0
2.5 -2.5 0
5 -2.5 0
0 -2.5 0
2.5 -2.5 0
0 0 0
2.5 0 0
2.5 -2.5 0
5 -2.5 0
2.5 0 0
5 0 0
5 -5 0
7.5 -5 0
5 -2.5 0
7.5 -2.5 0
7.5 -5 0
10 -5 0
7.5 -2.5 0
10 -2.5 0
5 -2.5 0
7.5 -2.5 0
5 0 0
7.5 0 0
7.5 -2.5 0
10 -2.5 0
7.5 0 0
10 0 0
-7.5 2.5 0
-5 2.5 0
-7.5 5 0
-5 5 0
-5 0 0
-2.5 0 0
-5 2.5 0
-2.5 2.5 0
-2.5 0 0
0 0 0
-2.5 2.5 0
0 2.5 0
-5 2.5 0
-2.5 2.5 0
-5 5 0
-2.5 5 0
-2.5 2.5 0
0 2.5 0
-2.5 5 0
0 5 0
7.5 -7.5 0
10 -7.5 0
7.5 -5 0
10 -5 0
-10 5 0
-7.5 5 0
-10 7.5 0
-7.5 7.5 0
-7.5 5 0
-5 5 0
-7.5 7.5 0
-5 7.5 0
-10 7.5 0
-7.5 7.5 0
-10 10 0
-7.5 10 0
-7.5 7.5 0
-5 7.5 0
-7.5 10 0
-5 10 0
-5 -5 0
-2.5 -5 0
-5 -2.5 0
-2.5 -2.5 0
-2.5 -5 0
0 -5 0
-2.5 -2.5 0
0 -2.5 0
-5 -2.5 0
-2.5 -2.5 0
-5 0 0
-2.5 0 0
-2.5 -2.5 0
0 -2.5 0
-2.5 0 0
0 0 0
-8.75 -8.75 0
-7.5 -8.75 0
-8.75 -7.5 0
-7.5 -7.5 0
2.5 -7.5 0
3.75 -7.5 0
2.5 -6.25 0
3.75 -6.25 0
3.75 -7.5 0
5 -7.5 0
3.75 -6.25 0
5 -6.25 0
2.5 -6.25 0
3.75 -6.25 0
2.5 -5 0
3.75 -5 0
3.75 -6.25 0
5 -6.25 0
3.75 -5 0
5 -5 0
-7.5 -7.5 0
-6.25 -7.5 0
-7.5 -6.25 0
-6.25 -6.25 0
-6.25 -7.5 0
-5 -7.5 0
-6.25 -6.25 0
-5 -6.25 0
-7.5 -6.25 0
-6.25 -6.25 0
-7.5 -5 0
-6.25 -5 0
-6.25 -6.25 0
-5 -6.25 0
-6.25 -5 0
-5 -5 0
0 -7.5 0
1.25 -7.5 0
0 -6.25 0
1.25 -6.25 0
1.25 -7.5 0
2.5 -7.5 0
1.25 -6.25 0
2.5 -6.25 0
0 -6.25 0
1.25 -6.25 0
0 -5 0
1.25 -5 0
1.25 -6.25 0
2.5 -6.25 0
1.25 -5 0
2.5 -5 0
-7.5 0 0
-6.25 0 0
-7.5 1.25 0
-6.25 1.25 0
-6.25 0 0
-5 0 0
-6.25 1.25 0
-5 1.25 0
-7.5 1.25 0
-6.25 1.25 0
-7.5 2.5 0
-6.25 2.5 0
-6.25 1.25 0
-5 1.25 0
-6.25 2.5 0
-5 2.5 0
-5 -7.5 0
-3.75 -7.5 0
-5 -6.25 0
-3.75 -6.25 0
-3.75 -7.5 0
-2.5 -7.5 0
-3.75 -6.25 0
-2.5 -6.25 0
-5 -6.25 0
-3.75 -6.25 0
-5 -5 0
-3.75 -5 0
-3.75 -6.25 0
-2.5 -6.25 0
-3.75 -5 0
-2.5 -5 0
2.5 -8.75 0
3.75 -8.75 0
2.5 -7.5 0
3.75 -7.5 0
5 -7.5 0
6.25 -7.5 0
5 -6.25 0
6.25 -6.25 0
6.25 -7.5 0
7.5 -7.5 0
6.25 -6.25 0
7.5 -6.25 0
5 -6.25 0
6.25 -6.25 0
5 -5 0
6.25 -5 0
6.25 -6.25 0
7.5 -6.25 0
6.25 -5 0
7.5 -5 0
-2.5 -7.5 0
-1.25 -7.5 0
-2.5 -6.25 0
-1.25 -6.25 0
-1.25 -7.5 0
0 -7.5 0
-1.25 -6.25 0
0 -6.25 0
-2.5 -6.25 0
-1.25 -6.25 0
-2.5 -5 0
-1.25 -5 0
-1.25 -6.25 0
0 -6.25 0
-1.25 -5 0
0 -5 0
-7.5 -5 0
-6.25 -5 0
-7.5 -3.75 0
-6.25 -3.75 0
-6.25 -5 0
-5 -5 0
-6.25 -3.75 0
-5 -3.75 0
-7.5 -3.75 0
-6.25 -3.75 0
-7.5 -2.5 0
-6.25 -2.5 0
-6.25 -3.75 0
-5 -3.75 0
-6.25 -2.5 0
-5 -2.5 0
-8.75 2.5 0
-7.5 2.5 0
-8.75 3.75 0
-7.5 3.75 0
-10 3.75 0
-8.75 3.75 0
-10 5 0
-8.75 5 0
-8.75 3.75 0
-7.5 3.75 0
-8.75 5 0
-7.5 5 0
-7.5 -2.5 0
-6.25 -2.5 0
-7.5 -1.25 0
-6.25 -1.25 0
-6.25 -2.5 0
-5 -2.5 0
-6.25 -1.25 0
-5 -1.25 0
-7.5 -1.25 0
-6.25 -1.25 0
-7.5 0 0
-6.25 0 0
-6.25 -1.25 0
-5 -1.25 0
-6.25 0 0
-5 0 0
6.25 -10 0
7.5 -10 0
6.25 -8.75 0
7.5 -8.75 0
5 -8.75 0
6.25 -8.75 0
5 -7.5 0
6.25 -7.5 0
7.5 -10 0
8.75 -10 0
7.5 -8.75 0
8.75 -8.75 0
8.75 -10 0
10 -10 0
8.75 -8.75 0
10 -8.75 0
7.5 -8.75 0
8.75 -8.75 0
7.5 -7.5 0
8.75 -7.5 0
8.75 -8.75 0
10 -8.75 0
8.75 -7.5 0
10 -7.5 0
-8.75 -9.375 0
-8.125 -9.375 0
-8.75 -8.75 0
-8.125 -8.75 0
-8.125 -9.375 0
-7.5 -9.375 0
-8.125 -8.75 0
-7.5 -8.75 0
-9.375 -8.75 0
-8.75 -8.75 0
-9.375 -8.125 0
-8.75 -8.125 0
-9.375 -8.125 0
-8.75 -8.125 0
-9.375 -7.5 0
-8.75 -7.5 0
-7.5 -8.75 0
-6.875 -8.75 0
-7.5 -8.125 0
-6.875 -8.125 0
-6.875 -8.75 0
-6.25 -8.75 0
-6.875 -8.125 0
-6.25 -8.125 0
-7.5 -8.125 0
-6.875 -8.125 0
-7.5 -7.5 0
-6.875 -7.5 0
-6.875 -8.125 0
-6.25 -8.125 0
-6.875 -7.5 0
-6.25 -7.5 0
0 -8.75 0
0.625 -8.75 0
0 -8.125 0
0.625 -8.125 0
0.625 -8.75 0
1.25 -8.75 0
0.625 -8.125 0
1.25 -8.125 0
0 -8.125 0
0.625 -8.125 0
0 -7.5 0
0.625 -7.5 0
0.625 -8.125 0
1.25 -8.125 0
0.625 -7.5 0
1.25 -7.5 0
1.25 -8.75 0
1.875 -8.75 0
1.25 -8.125 0
1.875 -8.125 0
1.875 -8.75 0
2.5 -8.75 0
1.875 -8.125 0
2.5 -8.125 0
1.25 -8.125 0
1.875 -8.125 0
1.25 -7.5 0
1.875 -7.5 0
1.875 -8.125 0
2.5 -8.125 0
1.875 -7.5 0
2.5 -7.5 0
-6.25 -8.75 0
-5.625 -8.75 0
-6.25 -8.125 0
-5.625 -8.125 0
-5.625 -8.75 0
-5 -8.75 0
-5.625 -8.125 0
-5 -8.125 0
-6.25 -8.125 0
-5.625 -8.125 0
-6.25 -7.5 0
-5.625 -7.5 0
-5.625 -8.125 0
-5 -8.125 0
-5.625 -7.5 0
-5 -7.5 0
-8.75 0 0
-8.125 0 0
-8.75 0.625 0
-8.125 0.625 0
-8.125 0 0
-7.5 0 0
-8.125 0.625 0
-7.5 0.625 0
-8.75 0.625 0
-8.125 0.625 0
-8.75 1.25 0
-8.125 1.25 0
-8.125 0.625 0
-7.5 0.625 0
-8.125 1.25 0
-7.5 1.25 0
-8.75 1.25 0
-8.125 1.25 0
-8.75 1.875 0
-8.125 1.875 0
-8.125 1.25 0
-7.5 1.25 0
-8.125 1.875 0
-7.5 1.875 0
-8.75 1.875 0
-8.125 1.875 0
-8.75 2.5 0
-8.125 2.5 0
-8.125 1.875 0
-7.5 1.875 0
-8.125 2.5 0
-7.5 2.5 0
-8.75 -7.5 0
-8.125 -7.5 0
-8.75 -6.875 0
-8.125 -6.875 0
-8.125 -7.5 0
-7.5 -7.5 0
-8.125 -6.875 0
-7.5 -6.875 0
-8.75 -6.875 0
-8.125 -6.875 0
-8.75 -6.25 0
-8.125 -6.25 0
-8.125 -6.875 0
-7.5 -6.875 0
-8.125 -6.25 0
-7.5 -6.25 0
-8.75 -6.25 0
-8.125 -6.25 0
-8.75 -5.625 0
-8.125 -5.625 0
-8.125 -6.25 0
-7.5 -6.25 0
-8.125 -5.625 0
-7.5 -5.625 0
-8.75 -5.625 0
-8.125 -5.625 0
-8.75 -5 0
-8.125 -5 0
-8.125 -5.625 0
-7.5 -5.625 0
-8.125 -5 0
-7.5 -5 0
-5 -8.75 0
-4.375 -8.75 0
-5 -8.125 0
-4.375 -8.125 0
-4.375 -8.75 0
-3.75 -8.75 0
-4.375 -8.125 0
-3.75 -8.125 0
-5 -8.125 0
-4.375 -8.125 0
-5 -7.5 0
-4.375 -7.5 0
-4.375 -8.125 0
-3.75 -8.125 0
-4.375 -7.5 0
-3.75 -7.5 0
-3.75 -8.75 0
-3.125 -8.75 0
-3.75 -8.125 0
-3.125 -8.125 0
-3.125 -8.75 0
-2.5 -8.75 0
-3.125 -8.125 0
-2.5 -8.125 0
-3.75 -8.125 0
-3.125 -8.125 0
-3.75 -7.5 0
-3.125 -7.5 0
-3.125 -8.125 0
-2.5 -8.125 0
-3.125 -7.5 0
-2.5 -7.5 0
-2.5 -8.75 0
-1.875 -8.75 0
-2.5 -8.125 0
-1.875 -8.125 0
-1.875 -8.75 0
-1.25 -8.75 0
-1.875 -8.125 0
-1.25 -8.125 0
-2.5 -8.125 0
-1.875 -8.125 0
-2.5 -7.5 0
-1.875 -7.5 0
-1.875 -8.125 0
-1.25 -8.125 0
-1.875 -7.5 0
-1.25 -7.5 0
-1.25 -8.75 0
-0.625 -8.75 0
-1.25 -8.125 0
-0.625 -8.125 0
-0.625 -8.75 0
0 -8.75 0
-0.625 -8.125 0
0 -8.125 0
-1.25 -8.125 0
-0.625 -8.125 0
-1.25 -7.5 0
-0.625 -7.5 0
-0.625 -8.125 0
0 -8.125 0
-0.625 -7.5 0
0 -7.5 0
-8.75 -5 0
-8.125 -5 0
-8.75 -4.375 0
-8.125 -4.375 0
-8.125 -5 0
-7.5 -5 0
-8.125 -4.375 0
-7.5 -4.375 0
-8.75 -4.375 0
-8.125 -4.375 0
-8.75 -3.75 0
-8.125 -3.75 0
-8.125 -4.375 0
-7.5 -4.375 0
-8.125 -3.75 0
-7.5 -3.75 0
0.625 -10 0
1.25 -10 0
0.625 -9.375 0
1.25 -9.375 0
0.625 -9.375 0
1.25 -9.375 0
0.625 -8.75 0
1.25 -8.75 0
1.875 -9.375 0
2.5 -9.375 0
1.875 -8.75 0
2.5 -8.75 0
-8.75 -3.75 0
-8.125 -3.75 0
-8.75 -3.125 0
-8.125 -3.125 0
-8.125 -3.75 0
-7.5 -3.75 0
-8.125 -3.125 0
-7.5 -3.125 0
-8.75 -3.125 0
-8.125 -3.125 0
-8.75 -2.5 0
-8.125 -2.5 0
-8.125 -3.125 0
-7.5 -3.125 0
-8.125 -2.5 0
-7.5 -2.5 0
-8.75 -2.5 0
-8.125 -2.5 0
-8.75 -1.875 0
-8.125 -1.875 0
-8.125 -2.5 0
-7.5 -2.5 0
-8.125 -1.875 0
-7.5 -1.875 0
-8.75 -1.875 0
-8.125 -1.875 0
-8.75 -1.25 0
-8.125 -1.25 0
-8.125 -1.875 0
-7.5 -1.875 0
-8.125 -1.25 0
-7.5 -1.25 0
2.5 -10 0
3.125 -10 0
2.5 -9.375 0
3.125 -9.375 0
3.125 -10 0
3.75 -10 0
3.125 -9.375 0
3.75 -9.375 0
2.5 -9.375 0
3.125 -9.375 0
2.5 -8.75 0
3.125 -8.75 0
3.125 -9.375 0
3.75 -9.375 0
3.125 -8.75 0
3.75 -8.75 0
-8.75 -1.25 0
-8.125 -1.25 0
-8.75 -0.625 0
-8.125 -0.625 0
-8.125 -1.25 0
-7.5 -1.25 0
-8.125 -0.625 0
-7.5 -0.625 0
-8.75 -0.625 0
-8.125 -0.625 0
-8.75 0 0
-8.125 0 0
-8.125 -0.625 0
-7.5 -0.625 0
-8.125 0 0
-7.5 0 0
-10 0.625 0
-9.375 0.625 0
-10 1.25 0
-9.375 1.25 0
-9.375 0.625 0
-8.75 0.625 0
-9.375 1.25 0
-8.75 1.25 0
3.75 -8.75 0
4.375 -8.75 0
3.75 -8.125 0
4.375 -8.125 0
4.375 -8.75 0
5 -8.75 0
4.375 -8.125 0
5 -8.125 0
3.75 -8.125 0
4.375 -8.125 0
3.75 -7.5 0
4.375 -7.5 0
4.375 -8.125 0
5 -8.125 0
4.375 -7.5 0
5 -7.5 0
-9.375 1.875 0
-8.75 1.875 0
-9.375 2.5 0
-8.75 2.5 0
5 -10 0
5.625 -10 0
5 -9.375 0
5.625 -9.375 0
5.625 -10 0
6.25 -10 0
5.625 -9.375 0
6.25 -9.375 0
5 -9.375 0
5.625 -9.375 0
5 -8.75 0
5.625 -8.75 0
5.625 -9.375 0
6.25 -9.375 0
5.625 -8.75 0
6.25 -8.75 0
-10 2.5 0
-9.375 2.5 0
-10 3.125 0
-9.375 3.125 0
-9.375 2.5 0
-8.75 2.5 0
-9.375 3.125 0
-8.75 3.125 0
-10 3.125 0
-9.375 3.125 0
-10 3.75 0
-9.375 3.75 0
-9.375 3.125 0
-8.75 3.125 0
-9.375 3.75 0
-8.75 3.75 0
6.25 -8.75 0
6.875 -8.75 0
6.25 -8.125 0
6.875 -8.125 0
6.875 -8.75 0
7.5 -8.75 0
6.875 -8.125 0
7.5 -8.125 0
6.25 -8.125 0
6.875 -8.125 0
6.25 -7.5 0
6.875 -7.5 0
6.875 -8.125 0
7.5 -8.125 0
6.875 -7.5 0
7.5 -7.5 0
4.375 -10 0
5 -10 0
4.375 -9.375 0
5 -9.375 0
-10 -10 0
-9.6875 -10 0
-10 -9.6875 0
-9.6875 -9.6875 0
-9.6875 -10 0
-9.375 -10 0
-9.6875 -9.6875 0
-9.375 -9.6875 0
-10 -9.6875 0
-9.6875 -9.6875 0
-10 -9.375 0
-9.6875 -9.375 0
-9.6875 -9.6875 0
-9.375 -9.6875 0
-9.6875 -9.375 0
-9.375 -9.375 0
-9.375 -10 0
-9.0625 -10 0
-9.375 -9.6875 0
-9.0625 -9.6875 0
-9.0625 -10 0
-8.75 -10 0
-9.0625 -9.6875 0
-8.75 -9.6875 0
-9.375 -9.6875 0
-9.0625 -9.6875 0
-9.375 -9.375 0
-9.0625 -9.375 0
-9.0625 -9.6875 0
-8.75 -9.6875 0
-9.0625 -9.375 0
-8.75 -9.375 0
-10 -9.375 0
-9.6875 -9.375 0
-10 -9.0625 0
-9.6875 -9.0625 0
-9.6875 -9.375 0
-9.375 -9.375 0
-9.6875 -9.0625 0
-9.375 -9.0625 0
-10 -9.0625 0
-9.6875 -9.0625 0
-10 -8.75 0
-9.6875 -8.75 0
-9.6875 -9.0625 0
-9.375 -9.0625 0
-9.6875 -8.75 0
-9.375 -8.75 0
-9.375 -9.375 0
-9.0625 -9.375 0
-9.375 -9.0625 0
-9.0625 -9.0625 0
-9.0625 -9.375 0
-8.75 -9.375 0
-9.0625 -9.0625 0
-8.75 -9.0625 0
-9.375 -9.0625 0
-9.0625 -9.0625 0
-9.375 -8.75 0
-9.0625 -8.75 0
-9.0625 -9.0625 0
-8.75 -9.0625 0
-9.0625 -8.75 0
-8.75 -8.75 0
-8.75 -10 0
-8.4375 -10 0
-8.75 -9.6875 0
-8.4375 -9.6875 0
-8.4375 -10 0
-8.125 -10 0
-8.4375 -9.6875 0
-8.125 -9.6875 0
-8.75 -9.6875 0
-8.4375 -9.6875 0
-8.75 -9.375 0
-8.4375 -9.375 0
-8.4375 -9.6875 0
-8.125 -9.6875 0
-8.4375 -9.375 0
-8.125 -9.375 0
-8.125 -10 0
-7.8125 -10 0
-8.125 -9.6875 0
-7.8125 -9.6875 0
-7.8125 -10 0
-7.5 -10 0
-7.8125 -9.6875 0
-7.5 -9.6875 0
-8.125 -9.6875 0
-7.8125 -9.6875 0
-8.125 -9.375 0
-7.8125 -9.375 0
-7.8125 -9.6875 0
-7.5 -9.6875 0
[...]
POINT_DATA 1780
SCALARS V double 1
LOOKUP_TABLE default
0.124995 -0.0268352 0 0 0.0172103 -0.00806666 -0.0268352 0.00755901 -0.00806666 0 0.00755901 0 -0.0268352 0.00755901 0 0 0.00755901 0 0 0 0.00151881 0.00877573 0.00936453 0.00757546 0.00877573 0.021734 0.00757546 0.00649933 0.00936453 0.00757546 0.0172103 0.0045718 0.00757546 0.00649933 0.0045718 -0.00806666 0.021734 0.0086457 0.00649933 0.00380708 0.0086457 0 0.00380708 0 0.00649933 0.00380708 -0.00806666 -0.00403333 0.00380708 0 -0.00403333 0 -0.0947656 0.0607783 -0.746858 0.124995 -0.00363089 0.00678968 0.0607783 0.0286625 0.00678968 0.0172103 0.0286625 -0.00481246 0.0607783 0.0286625 0.124995 0.0505392 0.0286625 -0.00481246 0.0505392 -0.0268352 -0.500418 0 0.0086457 0 3.48603 -0.746858 2.24102 -0.622898 -0.746858 0.124995 -0.622898 0.059548 2.24102 -0.622898 0.996008 0 -0.622898 0.059548 0 0 0.00692229 0.00422055 0.0016457 0.00550512 0.00422055 0.00151881 0.00550512 0.00936453 0.0016457 0.00550512 -0.00363089 0.00678968 0.00550512 0.00936453 0.00678968 0.0172103 0.135043 0.033398 0.0333985 -0.0150359 0.0128164 0.17158 0.0129882 0.0804546 0.17158 0.253869 0.0804546 0.142109 0.0129882 0.0804546 0.00877573 0.0152548 0.0804546 0.142109 0.0152548 0.021734 -0.0150359 -0.00985545 -0.0103292 -0.00460278 -0.00985545 -0.004675 -0.00460278 0.00112364 -0.0103292 -0.00460278 -0.00562252 0.000649882 -0.00460278 0.00112364 0.000649882 0.00692229 -0.00153733 0.00369929 -9.25543e-06 0.0050417 0.00369929 0.0128164 0.0050417 0.0129882 -9.25543e-06 0.0050417 0.00151881 0.00514727 0.0050417 0.0129882 0.00514727 0.00877573 -0.017183 -0.010407 -0.0551482 -0.0132206 -0.010407 -0.00363089 -0.0132206 0.0285737 -0.0551482 -0.0132206 -0.0947656 -0.0164087 -0.0132206 0.0285737 -0.0164087 0.0607783 -0.004675 -0.0057513 0.00112364 -8.9942e-05 -0.0057513 -0.0068276 -8.9942e-05 -0.00130353 0.00112364 -8.9942e-05 0.00692229 0.00557142 -8.9942e-05 -0.00130353 0.00557142 0.00422055 -0.0234383 0.0746902 0.0128164 0.17158 0.253869 -0.136703 0.142109 -0.0480537 -0.136703 -0.500418 -0.0480537 -0.245886 0.142109 -0.0480537 0.021734 0.0151898 -0.0480537 -0.245886 0.0151898 0.0086457 -0.0068276 -0.00418246 -0.00130353 -0.000656391 -0.00418246 -0.00153733 -0.000656391 -9.25543e-06 -0.00130353 -0.000656391 0.00422055 0.00286968 -0.000656391 -9.25543e-06 0.00286968 0.00151881 -0.00562252 0.000649882 -0.00495093 -0.00033347 0.000649882 0.00692229 -0.00033347 0.00428399 -0.00495093 -0.00033347 -0.00427934 -0.00131682 -0.00033347 0.00428399 -0.00131682 0.0016457 -0.0889714 -0.0947656 -1.06871 -0.437293 4.10853 -1.06871 3.48603 1.27279 -1.06871 -0.437293 1.27279 -0.746858 -0.00427934 -0.00131682 -0.0107312 -0.00586189 -0.00131682 0.0016457 -0.00586189 -0.000992597 -0.0107312 -0.00586189 -0.017183 -0.010407 -0.00586189 -0.000992597 -0.010407 -0.00363089 2.86352 2.24102 -0.814489 0.8703 -0.576895 -0.814489 0.253869 -0.136703 2.24102 1.61851 0.8703 0.684152 1.61851 0.996008 0.684152 0.498004 0.8703 0.684152 -0.500418 -0.250209 0.684152 0.498004 -0.250209 0 -0.053109 -0.121794 0.135043 0.0986797 -0.121794 -0.134636 0.0986797 0.033398 -0.053109 0.135043 -0.121794 0.0986804 -0.121794 0.0986804 -0.134635 0.0333985 0.033398 0.0436712 0.00918103 0.0156128 0.0436712 0.0539444 0.0156128 0.0220445 0.00918103 0.0156128 -0.0150359 -0.0124457 0.0156128 0.0220445 -0.0124457 -0.00985545 0.0320824 0.000618483 0.0152725 0.0321573 0.000618483 -0.00516364 0.0321573 0.0292161 0.0152725 0.0321573 -0.00153733 0.00108098 0.0321573 0.0292161 0.00108098 0.00369929 -0.00516364 -0.0445033 0.0292161 0.00983735 -0.0445033 -0.0234383 0.00983735 -0.0194095 0.0292161 0.00983735 0.00369929 0.00825786 0.00983735 -0.0194095 0.00825786 0.0128164 0.0539444 0.048962 0.0220445 0.0208484 0.048962 0.0439796 0.0208484 0.0196523 0.0220445 0.0208484 -0.00985545 -0.00726522 0.0208484 0.0196523 -0.00726522 -0.004675 0.0369546 0.00988578 0.00698161 0.0173304 0.00988578 -0.017183 0.0173304 -0.0361656 0.00698161 0.0173304 0.000281087 0.00165251 0.0173304 -0.0361656 0.00165251 -0.0551482 0.000281087 0.00165251 -0.0587057 -0.0366878 0.00165251 -0.0551482 -0.0366878 -0.0749569 -0.0587057 -0.0366878 -0.0889714 -0.111293 -0.0366878 -0.0749569 -0.111293 -0.0947656 0.0333985 0.00918132 0.0437336 0.0155255 0.00918132 -0.0150359 0.0155255 -0.0126826 0.0437336 0.0155255 0.0540686 0.0218697 0.0155255 -0.0126826 0.0218697 -0.0103292 0.0540686 0.0218697 0.0491499 0.020587 0.0218697 -0.0103292 0.020587 -0.00797587 0.0491499 0.020587 0.0442312 0.0193044 0.020587 -0.00797587 0.0193044 -0.00562252 0.0439796 0.0430677 0.0196523 0.0189273 0.0430677 0.0421559 0.0189273 0.0182023 0.0196523 0.0189273 -0.004675 -0.00521315 0.0189273 0.0182023 -0.00521315 -0.0057513 0.0421559 0.040574 0.0182023 0.0171423 0.040574 0.0389921 0.0171423 0.0160822 0.0182023 0.0171423 -0.0057513 -0.00628945 0.0171423 0.0160822 -0.00628945 -0.0068276 0.0389921 0.0369707 0.0160822 0.0157328 0.0369707 0.0349493 0.0157328 0.0153834 0.0160822 0.0157328 -0.0068276 -0.00550503 0.0157328 0.0153834 -0.00550503 -0.00418246 0.0349493 0.0335158 0.0153834 0.015328 0.0335158 0.0320824 0.015328 0.0152725 0.0153834 0.015328 -0.00418246 -0.00285989 0.015328 0.0152725 -0.00285989 -0.00153733 0.0442312 0.0193044 0.0430628 0.018888 0.0193044 -0.00562252 0.018888 -0.00528673 0.0430628 0.018888 0.0418944 0.0184717 0.018888 -0.00528673 0.0184717 -0.00495093 5.6648 5.35354 0.100539 0.0660375 0.100539 0.0660375 0.000618483 -0.00516364 0.334758 0.303269 -0.0445033 -0.0234383 0.0418944 0.0184717 0.040082 0.0177334 0.0184717 -0.00495093 0.0177334 -0.00461514 0.040082 0.0177334 0.0382695 0.0169951 0.0177334 -0.00461514 0.0169951 -0.00427934 0.0382695 0.0169951 0.0374505 0.0149726 0.0169951 -0.00427934 0.0149726 -0.00750526 0.0374505 0.0149726 0.0366314 0.0129501 0.0149726 -0.00750526 0.0129501 -0.0107312 4.73104 4.41979 0.303269 -0.0162116 4.41979 4.10853 -0.0162116 -0.274489 0.303269 -0.0162116 -0.0234383 0.033545 -0.0162116 -0.274489 0.033545 0.0746902 0.0366314 0.0129501 0.036793 0.0114179 0.0129501 -0.0107312 0.0114179 -0.0139571 0.036793 0.0114179 0.0369546 0.00988578 0.0114179 -0.0139571 0.00988578 -0.017183 5.6648 0.100322 5.35354 0.0657179 0.100322 0.00698161 0.0657179 0.000281087 0.0746902 -0.251103 0.123135 -0.0191891 -0.251103 -0.576895 -0.0191891 -0.161513 0.123135 -0.0191891 0.17158 0.212724 -0.0191891 -0.161513 0.212724 0.253869 0.337676 -0.0587057 0.278924 -0.0889714 3.48603 3.17478 1.45457 1.23954 3.17478 2.86352 1.23954 1.02452 1.45457 1.23954 -0.576895 -0.695692 1.23954 1.02452 -0.695692 -0.814489 4.73104 0.278924 4.41979 -0.247363 0.278924 -0.0889714 -0.247363 -0.669084 4.41979 -0.247363 4.10853 1.31493 -0.247363 -0.669084 1.31493 -1.06871 -0.814489 0.0279054 -0.475596 -0.145327 0.0279054 0.8703 -0.145327 0.184941 -0.475596 -0.145327 -0.136703 -0.31856 -0.145327 0.184941 -0.31856 -0.500418 3.79728 3.48603 -0.358398 1.45457 10.9561 10.8005 10.8005 4.54686 10.8005 10.6448 4.54686 2.42153 10.8005 4.54686 10.6448 2.42153 4.54686 2.42153 2.42153 -0.303419 10.6448 10.4892 2.42153 2.47096 10.4892 10.3336 2.47096 2.52496 2.42153 2.47096 -0.303419 -0.224875 2.47096 2.52496 -0.224875 -0.053109 10.6448 2.42153 10.4892 2.47096 2.42153 -0.303419 2.47096 -0.224875 10.4892 2.47096 10.3336 2.52496 2.47096 -0.224875 2.52496 -0.053109 -0.303419 -0.224875 -0.224875 -0.211699 -0.224875 -0.053109 -0.211699 -0.0316378 -0.224875 -0.211699 -0.053109 -0.0316378 -0.211699 -0.0316378 -0.0316378 0.135043 10.3336 10.178 2.52496 2.46193 10.178 10.0223 2.46193 2.41781 2.52496 2.46193 -0.053109 -0.0752255 2.46193 2.41781 -0.0752255 -0.121794 10.0223 9.8667 2.41781 2.38021 9.8667 9.71108 2.38021 2.352 2.41781 2.38021 -0.121794 -0.111781 2.38021 2.352 -0.111781 -0.134636 -0.134636 -0.13401 -0.0506192 -0.0477379 -0.13401 -0.133385 -0.0477379 -0.0448567 -0.0506192 -0.0477379 0.033398 0.0385346 -0.0477379 -0.0448567 0.0385346 0.0436712 -0.133385 -0.131718 -0.0448567 -0.0414552 -0.131718 -0.130052 -0.0414552 -0.0380537 -0.0448567 -0.0414552 0.0436712 0.0488078 -0.0414552 -0.0380537 0.0488078 0.0539444 10.3336 2.52496 10.178 2.46193 2.52496 -0.053109 2.46193 -0.0752255 10.178 2.46193 10.0223 2.41781 2.46193 -0.0752255 2.41781 -0.121794 -0.130052 -0.127626 -0.0380537 -0.0380863 -0.127626 -0.1252 -0.0380863 -0.0381189 -0.0380537 -0.0380863 0.0539444 0.0514532 -0.0380863 -0.0381189 0.0514532 0.048962 10.0223 2.41781 9.8667 2.38021 2.41781 -0.121794 2.38021 -0.111781 9.8667 2.38021 9.71108 2.352 2.38021 -0.111781 2.352 -0.134635 -0.1252 -0.122961 -0.0381189 -0.038245 -0.122961 -0.120722 -0.038245 -0.0383711 -0.0381189 -0.038245 0.048962 0.0464708 -0.038245 -0.0383711 0.0464708 0.0439796 9.71108 9.55545 2.352 2.31443 9.55545 9.39983 2.31443 2.27565 2.352 2.31443 -0.134636 -0.13401 2.31443 2.27565 -0.13401 -0.133385 9.39983 9.2442 2.27565 2.23748 9.2442 9.08857 2.23748 2.19965 2.27565 2.23748 -0.133385 -0.131718 2.23748 2.19965 -0.131718 -0.130052 -0.134635 -0.0506183 -0.134012 -0.0477228 -0.0506183 0.0333985 -0.0477228 0.0385661 -0.134012 -0.0477228 -0.133388 -0.0448273 -0.0477228 0.0385661 -0.0448273 0.0437336 -0.133388 -0.0448273 -0.131723 -0.0414112 -0.0448273 0.0437336 -0.0414112 0.0489011 -0.131723 -0.0414112 -0.130059 -0.0379951 -0.0414112 0.0489011 -0.0379951 0.0540686 9.08857 8.93295 2.19965 2.16201 8.93295 8.77732 2.16201 2.12448 2.19965 2.16201 -0.130052 -0.127626 2.16201 2.12448 -0.127626 -0.1252 8.77732 8.62169 2.12448 2.08698 8.62169 8.46607 2.08698 2.04945 2.12448 2.08698 -0.1252 -0.122961 2.08698 2.04945 -0.122961 -0.120722 -0.130059 -0.0379951 -0.127634 -0.0380122 -0.0379951 0.0540686 -0.0380122 0.0516093 -0.127634 -0.0380122 -0.125209 -0.0380293 -0.0380122 0.0516093 -0.0380293 0.0491499 -0.125209 -0.0380293 -0.122974 -0.0381416 -0.0380293 0.0491499 -0.0381416 0.0466906 -0.122974 -0.0381416 -0.120739 -0.038254 -0.0381416 0.0466906 -0.038254 0.0442312 9.71108 2.352 9.55545 2.31442 2.352 -0.134635 2.31442 -0.134012 9.55545 2.31442 9.39983 2.27564 2.31442 -0.134012 2.27564 -0.133388 -0.120722 -0.118514 -0.0383711 -0.0374951 -0.118514 -0.116306 -0.0374951 -0.036619 -0.0383711 -0.0374951 0.0439796 0.0435236 -0.0374951 -0.036619 0.0435236 0.0430677 9.39983 2.27564 9.2442 2.23747 2.27564 -0.133388 2.23747 -0.131723 9.2442 2.23747 9.08857 2.19964 2.23747 -0.131723 2.19964 -0.130059 -0.116306 -0.11408 -0.036619 -0.0357339 -0.11408 -0.111853 -0.0357339 -0.0348488 -0.036619 -0.0357339 0.0430677 0.0426118 -0.0357339 -0.0348488 0.0426118 0.0421559 9.08857 2.19964 8.93295 2.162 2.19964 -0.130059 2.162 -0.127634 8.93295 2.162 8.77732 2.12446 2.162 -0.127634 2.12446 -0.125209 -0.111853 -0.109616 -0.0348488 -0.0341254 -0.109616 -0.107378 -0.0341254 -0.0334021 -0.0348488 -0.0341254 0.0421559 0.0413649 -0.0341254 -0.0334021 0.0413649 0.040574 8.77732 2.12446 8.62169 2.08696 2.12446 -0.125209 2.08696 -0.122974 8.62169 2.08696 8.46607 2.04943 2.08696 -0.122974 2.04943 -0.120739 -0.107378 -0.105223 -0.0334021 -0.0327202 -0.105223 -0.103069 -0.0327202 -0.0320383 -0.0334021 -0.0327202 0.040574 0.039783 -0.0327202 -0.0320383 0.039783 0.0389921 8.46607 8.31044 2.04945 2.01177 8.31044 8.15482 2.01177 1.97405 2.04945 2.01177 -0.120722 -0.118514 2.01177 1.97405 -0.118514 -0.116306 8.15482 7.99919 1.97405 1.93633 7.99919 7.84356 1.93633 1.89861 1.97405 1.93633 -0.116306 -0.11408 1.93633 1.89861 -0.11408 -0.111853 -0.103069 -0.100583 -0.0320383 -0.0313007 -0.100583 -0.098097 -0.0313007 -0.0305632 -0.0320383 -0.0313007 0.0389921 0.0379814 -0.0313007 -0.0305632 0.0379814 0.0369707 -0.098097 -0.0969149 -0.0305632 -0.0304775 -0.0969149 -0.0957328 -0.0304775 -0.0303917 -0.0305632 -0.0304775 0.0369707 0.03596 -0.0304775 -0.0303917 0.03596 0.0349493 7.84356 7.68794 1.89861 1.86093 7.68794 7.53231 1.86093 1.82325 1.89861 1.86093 -0.111853 -0.109616 1.86093 1.82325 -0.109616 -0.107378 7.53231 7.37668 1.82325 1.78559 7.37668 7.22106 1.78559 1.74793 1.82325 1.78559 -0.107378 -0.105223 1.78559 1.74793 -0.105223 -0.103069 -0.0957328 -0.0890823 -0.0303917 -0.0274249 -0.0890823 -0.0824318 -0.0274249 -0.024458 -0.0303917 -0.0274249 0.0349493 0.0342326 -0.0274249 -0.024458 0.0342326 0.0335158 -0.0824318 -0.0994327 -0.024458 -0.0333168 -0.0994327 -0.116434 -0.0333168 -0.0421756 -0.024458 -0.0333168 0.0335158 0.0327991 -0.0333168 -0.0421756 0.0327991 0.0320824 7.22106 7.06543 1.74793 1.71023 7.06543 6.90981 1.71023 1.67251 1.74793 1.71023 -0.103069 -0.100583 1.71023 1.67251 -0.100583 -0.098097 6.90981 6.75418 1.67251 1.63504 6.75418 6.59855 1.63504 1.59734 1.67251 1.63504 -0.098097 -0.0969149 1.63504 1.59734 -0.0969149 -0.0957328 -0.120739 -0.038254 -0.118523 -0.0374382 -0.038254 0.0442312 -0.0374382 0.043647 -0.118523 -0.0374382 -0.116308 -0.0366224 -0.0374382 0.043647 -0.0366224 0.0430628 -0.116308 -0.0366224 -0.114076 -0.0357987 -0.0366224 0.0430628 -0.0357987 0.0424786 -0.114076 -0.0357987 -0.111845 -0.0349751 -0.0357987 0.0424786 -0.0349751 0.0418944 6.59855 6.44293 1.59734 1.56019 6.44293 6.2873 1.56019 1.51657 1.59734 1.56019 -0.0957328 -0.0890823 1.56019 1.51657 -0.0890823 -0.0824318 6.2873 6.13167 1.51657 1.50391 6.13167 5.97605 1.50391 1.38986 1.51657 1.50391 -0.0824318 -0.0994327 1.50391 1.38986 -0.0994327 -0.116434 -0.111845 -0.0349751 -0.109601 -0.0343066 -0.0349751 0.0418944 -0.0343066 0.0409882 -0.109601 -0.0343066 -0.107358 -0.0336381 -0.0343066 0.0409882 -0.0336381 0.040082 -0.107358 -0.0336381 -0.105183 -0.0330036 -0.0336381 0.040082 -0.0330036 0.0391758 -0.105183 -0.0330036 -0.103008 -0.0323692 -0.0330036 0.0391758 -0.0323692 0.0382695 8.46607 2.04943 8.31044 2.01176 2.04943 -0.120739 2.01176 -0.118523 8.31044 2.01176 8.15482 1.97405 2.01176 -0.118523 1.97405 -0.116308 -0.103008 -0.0323692 -0.100581 -0.0313606 -0.0323692 0.0382695 -0.0313606 0.03786 -0.100581 -0.0313606 -0.0981545 -0.030352 -0.0313606 0.03786 -0.030352 0.0374505 8.15482 1.97405 7.99919 1.93634 1.97405 -0.116308 1.93634 -0.114076 7.99919 1.93634 7.84356 1.89864 1.93634 -0.114076 1.89864 -0.111845 -0.0981545 -0.030352 -0.0970161 -0.0299876 -0.030352 0.0374505 -0.0299876 0.0370409 -0.0970161 -0.0299876 -0.0958778 -0.0296232 -0.0299876 0.0370409 -0.0296232 0.0366314 7.84356 1.89864 7.68794 1.86096 1.89864 -0.111845 1.86096 -0.109601 7.68794 1.86096 7.53231 1.82329 1.86096 -0.109601 1.82329 -0.107358 -0.0958778 -0.0296232 -0.0892535 -0.0262707 -0.0296232 0.0366314 -0.0262707 0.0367122 -0.0892535 -0.0262707 -0.0826292 -0.0229181 -0.0262707 0.0367122 -0.0229181 0.036793 7.53231 1.82329 7.37668 1.78563 1.82329 -0.107358 1.78563 -0.105183 7.37668 1.78563 7.22106 1.74796 1.78563 -0.105183 1.74796 -0.103008 -0.0826292 -0.0229181 -0.0996918 -0.031409 -0.0229181 0.036793 -0.031409 0.0368738 -0.0996918 -0.031409 -0.116754 -0.0398999 -0.031409 0.0368738 -0.0398999 0.0369546 7.22106 1.74796 7.06543 1.71024 1.74796 -0.103008 1.71024 -0.100581 7.06543 1.71024 6.90981 1.6725 1.71024 -0.100581 1.6725 -0.0981545 -0.116434 -0.00794707 -0.0421756 0.00420169 -0.00794707 0.100539 0.00420169 0.050579 -0.0421756 0.00420169 0.0320824 0.0163504 0.00420169 0.050579 0.0163504 0.000618483 6.90981 1.6725 6.75418 1.635 1.6725 -0.0981545 1.635 -0.0970161 6.75418 1.635 6.59855 1.59725 1.635 -0.0970161 1.59725 -0.0958778 5.35354 5.19792 2.70979 2.69916 5.19792 5.04229 2.69916 2.68852 2.70979 2.69916 0.0660375 0.200398 2.69916 2.68852 0.200398 0.334758 6.59855 1.59725 6.44293 1.56001 1.59725 -0.0958778 1.56001 -0.0892535 6.44293 1.56001 6.2873 1.51627 1.56001 -0.0892535 1.51627 -0.0826292 5.04229 4.88666 2.68852 2.60284 4.88666 4.73104 2.60284 2.51715 2.68852 2.60284 0.334758 0.319014 2.60284 2.51715 0.319014 0.303269 6.2873 1.51627 6.13167 1.50351 1.51627 -0.0826292 1.50351 -0.0996918 6.13167 1.50351 5.97605 1.38942 1.50351 -0.0996918 1.38942 -0.116754 0.0660375 0.200398 0.0304369 0.0877823 0.200398 0.334758 0.0877823 0.145128 0.0304369 0.0877823 -0.00516364 -0.0248335 0.0877823 0.145128 -0.0248335 -0.0445033 5.97605 5.82042 1.38986 1.49399 5.82042 5.6648 1.49399 2.4553 1.38986 1.49399 -0.116434 -0.00794707 1.49399 2.4553 -0.00794707 0.100539 -0.116754 -0.0398999 -0.00821608 0.00687601 -0.0398999 0.0369546 0.00687601 0.0219681 -0.00821608 0.00687601 0.100322 0.0536519 0.00687601 0.0219681 0.0536519 0.00698161 5.35354 2.70963 5.19792 2.69981 2.70963 0.0657179 2.69981 0.201697 5.19792 2.69981 5.04229 2.68998 2.69981 0.201697 2.68998 0.337676 0.0657179 0.0329995 0.201697 0.0862424 0.0329995 0.000281087 0.0862424 -0.0292123 0.201697 0.0862424 0.337676 0.139485 0.0862424 -0.0292123 0.139485 -0.0587057 5.04229 2.68998 4.88666 2.59748 2.68998 0.337676 2.59748 0.3083 4.88666 2.59748 4.73104 2.50498 2.59748 0.3083 2.50498 0.278924 4.10853 3.95291 1.91702 1.81823 3.95291 3.79728 1.81823 1.71944 1.91702 1.81823 -0.274489 -0.316444 1.81823 1.71944 -0.316444 -0.358398 -0.274489 -0.316444 -0.0998996 -0.202325 -0.316444 -0.358398 -0.202325 -0.30475 -0.0998996 -0.202325 0.0746902 -0.0882062 -0.202325 -0.30475 -0.0882062 -0.251103 -0.358398 0.548084 -0.30475 0.0670427 0.548084 1.45457 0.0670427 0.438835 -0.30475 0.0670427 -0.251103 -0.413999 0.0670427 0.438835 -0.413999 -0.576895 5.97605 1.38942 5.82042 1.49354 1.38942 -0.116754 1.49354 -0.00821608 5.82042 1.49354 5.6648 2.45474 1.49354 -0.00821608 2.45474 0.100322 
