# vtk DataFile Version 3.0
#This file was generated by the deal.II library on 2015/5/12 at 16: 3:47
ASCII
DATASET UNSTRUCTURED_GRID

POINTS 2200 double
0 0 0
5 0 0
0 5 0
5 5 0
5 0 0
10 0 0
5 5 0
10 5 0
0 5 0
5 5 0
0 10 0
5 10 0
5 5 0
10 5 0
5 10 0
10 10 0
0 -5 0
2.5 -5 0
0 -2.5 0
2.5 -2.5 0
2.5 -5 0
5 -5 0
2.5 -2.5 0
5 -2.5 0
0 -2.5 0
2.5 -2.5 0
0 0 0
2.5 0 0
2.5 -2.5 0
5 -2.5 0
2.5 0 0
5 0 0
5 -5 0
7.5 -5 0
5 -2.5 0
7.5 -2.5 0
7.5 -5 0
10 -5 0
7.5 -2.5 0
10 -2.5 0
5 -2.5 0
7.5 -2.5 0
5 0 0
7.5 0 0
7.5 -2.5 0
10 -2.5 0
7.5 0 0
10 0 0
-5 0 0
-2.5 0 0
-5 2.5 0
-2.5 2.5 0
-2.5 0 0
0 0 0
-2.5 2.5 0
0 2.5 0
-5 2.5 0
-2.5 2.5 0
-5 5 0
-2.5 5 0
-2.5 2.5 0
0 2.5 0
-2.5 5 0
0 5 0
-5 -5 0
-2.5 -5 0
-5 -2.5 0
-2.5 -2.5 0
-2.5 -5 0
0 -5 0
-2.5 -2.5 0
0 -2.5 0
-5 -2.5 0
-2.5 -2.5 0
-5 0 0
-2.5 0 0
-2.5 -2.5 0
0 -2.5 0
-2.5 0 0
0 0 0
-5 5 0
-2.5 5 0
-5 7.5 0
-2.5 7.5 0
-2.5 5 0
0 5 0
-2.5 7.5 0
0 7.5 0
-5 7.5 0
-2.5 7.5 0
-5 10 0
-2.5 10 0
-2.5 7.5 0
0 7.5 0
-2.5 10 0
0 10 0
2.5 -7.5 0
3.75 -7.5 0
2.5 -6.25 0
3.75 -6.25 0
3.75 -7.5 0
5 -7.5 0
3.75 -6.25 0
5 -6.25 0
2.5 -6.25 0
3.75 -6.25 0
2.5 -5 0
3.75 -5 0
3.75 -6.25 0
5 -6.25 0
3.75 -5 0
5 -5 0
-7.5 -7.5 0
-6.25 -7.5 0
-7.5 -6.25 0
-6.25 -6.25 0
-6.25 -7.5 0
-5 -7.5 0
-6.25 -6.25 0
-5 -6.25 0
-7.5 -6.25 0
-6.25 -6.25 0
-7.5 -5 0
-6.25 -5 0
-6.25 -6.25 0
-5 -6.25 0
-6.25 -5 0
-5 -5 0
0 -7.5 0
1.25 -7.5 0
0 -6.25 0
1.25 -6.25 0
1.25 -7.5 0
2.5 -7.5 0
1.25 -6.25 0
2.5 -6.25 0
0 -6.25 0
1.25 -6.25 0
0 -5 0
1.25 -5 0
1.25 -6.25 0
2.5 -6.25 0
1.25 -5 0
2.5 -5 0
-7.5 0 0
-6.25 0 0
-7.5 1.25 0
-6.25 1.25 0
-6.25 0 0
-5 0 0
-6.25 1.25 0
-5 1.25 0
-7.5 1.25 0
-6.25 1.25 0
-7.5 2.5 0
-6.25 2.5 0
-6.25 1.25 0
-5 1.25 0
-6.25 2.5 0
-5 2.5 0
-5 -7.5 0
-3.75 -7.5 0
-5 -6.25 0
-3.75 -6.25 0
-3.75 -7.5 0
-2.5 -7.5 0
-3.75 -6.25 0
-2.5 -6.25 0
-5 -6.25 0
-3.75 -6.25 0
-5 -5 0
-3.75 -5 0
-3.75 -6.25 0
-2.5 -6.25 0
-3.75 -5 0
-2.5 -5 0
5 -7.5 0
6.25 -7.5 0
5 -6.25 0
6.25 -6.25 0
6.25 -7.5 0
7.5 -7.5 0
6.25 -6.25 0
7.5 -6.25 0
5 -6.25 0
6.25 -6.25 0
5 -5 0
6.25 -5 0
6.25 -6.25 0
7.5 -6.25 0
6.25 -5 0
7.5 -5 0
-7.5 2.5 0
-6.25 2.5 0
-7.5 3.75 0
-6.25 3.75 0
-6.25 2.5 0
-5 2.5 0
-6.25 3.75 0
-5 3.75 0
-7.5 3.75 0
-6.25 3.75 0
-7.5 5 0
-6.25 5 0
-6.25 3.75 0
-5 3.75 0
-6.25 5 0
-5 5 0
-7.5 -5 0
-6.25 -5 0
-7.5 -3.75 0
-6.25 -3.75 0
-6.25 -5 0
-5 -5 0
-6.25 -3.75 0
-5 -3.75 0
-7.5 -3.75 0
-6.25 -3.75 0
-7.5 -2.5 0
-6.25 -2.5 0
-6.25 -3.75 0
-5 -3.75 0
-6.25 -2.5 0
-5 -2.5 0
-10 5 0
-8.75 5 0
-10 6.25 0
-8.75 6.25 0
-10 6.25 0
-8.75 6.25 0
-10 7.5 0
-8.75 7.5 0
-8.75 6.25 0
-7.5 6.25 0
-8.75 7.5 0
-7.5 7.5 0
7.5 -10 0
8.75 -10 0
7.5 -8.75 0
8.75 -8.75 0
8.75 -10 0
10 -10 0
8.75 -8.75 0
10 -8.75 0
8.75 -8.75 0
10 -8.75 0
8.75 -7.5 0
10 -7.5 0
-6.25 5 0
-5 5 0
-6.25 6.25 0
-5 6.25 0
-7.5 6.25 0
-6.25 6.25 0
-7.5 7.5 0
-6.25 7.5 0
-6.25 6.25 0
-5 6.25 0
-6.25 7.5 0
-5 7.5 0
-2.5 -7.5 0
-1.25 -7.5 0
-2.5 -6.25 0
-1.25 -6.25 0
-1.25 -7.5 0
0 -7.5 0
-1.25 -6.25 0
0 -6.25 0
-2.5 -6.25 0
-1.25 -6.25 0
-2.5 -5 0
-1.25 -5 0
-1.25 -6.25 0
0 -6.25 0
-1.25 -5 0
0 -5 0
-7.5 -2.5 0
-6.25 -2.5 0
-7.5 -1.25 0
-6.25 -1.25 0
-6.25 -2.5 0
-5 -2.5 0
-6.25 -1.25 0
-5 -1.25 0
-7.5 -1.25 0
-6.25 -1.25 0
-7.5 0 0
-6.25 0 0
-6.25 -1.25 0
-5 -1.25 0
-6.25 0 0
-5 0 0
-10 7.5 0
-8.75 7.5 0
-10 8.75 0
-8.75 8.75 0
-10 8.75 0
-8.75 8.75 0
-10 10 0
-8.75 10 0
-8.75 8.75 0
-7.5 8.75 0
-8.75 10 0
-7.5 10 0
-6.25 7.5 0
-5 7.5 0
-6.25 8.75 0
-5 8.75 0
-7.5 8.75 0
-6.25 8.75 0
-7.5 10 0
-6.25 10 0
-6.25 8.75 0
-5 8.75 0
-6.25 10 0
-5 10 0
7.5 -7.5 0
8.75 -7.5 0
7.5 -6.25 0
8.75 -6.25 0
8.75 -7.5 0
10 -7.5 0
8.75 -6.25 0
10 -6.25 0
7.5 -6.25 0
8.75 -6.25 0
7.5 -5 0
8.75 -5 0
8.75 -6.25 0
10 -6.25 0
8.75 -5 0
10 -5 0
-7.5 -8.75 0
-6.875 -8.75 0
-7.5 -8.125 0
-6.875 -8.125 0
-6.875 -8.75 0
-6.25 -8.75 0
-6.875 -8.125 0
-6.25 -8.125 0
-7.5 -8.125 0
-6.875 -8.125 0
-7.5 -7.5 0
-6.875 -7.5 0
-6.875 -8.125 0
-6.25 -8.125 0
-6.875 -7.5 0
-6.25 -7.5 0
0 -8.75 0
0.625 -8.75 0
0 -8.125 0
0.625 -8.125 0
0.625 -8.75 0
1.25 -8.75 0
0.625 -8.125 0
1.25 -8.125 0
0 -8.125 0
0.625 -8.125 0
0 -7.5 0
0.625 -7.5 0
0.625 -8.125 0
1.25 -8.125 0
0.625 -7.5 0
1.25 -7.5 0
1.25 -8.75 0
1.875 -8.75 0
1.25 -8.125 0
1.875 -8.125 0
1.875 -8.75 0
2.5 -8.75 0
1.875 -8.125 0
2.5 -8.125 0
1.25 -8.125 0
1.875 -8.125 0
1.25 -7.5 0
1.875 -7.5 0
1.875 -8.125 0
2.5 -8.125 0
1.875 -7.5 0
2.5 -7.5 0
-6.25 -8.75 0
-5.625 -8.75 0
-6.25 -8.125 0
-5.625 -8.125 0
-5.625 -8.75 0
-5 -8.75 0
-5.625 -8.125 0
-5 -8.125 0
-6.25 -8.125 0
-5.625 -8.125 0
-6.25 -7.5 0
-5.625 -7.5 0
-5.625 -8.125 0
-5 -8.125 0
-5.625 -7.5 0
-5 -7.5 0
-8.75 0 0
-8.125 0 0
-8.75 0.625 0
-8.125 0.625 0
-8.125 0 0
-7.5 0 0
-8.125 0.625 0
-7.5 0.625 0
-8.75 0.625 0
-8.125 0.625 0
-8.75 1.25 0
-8.125 1.25 0
-8.125 0.625 0
-7.5 0.625 0
-8.125 1.25 0
-7.5 1.25 0
-8.75 1.25 0
-8.125 1.25 0
-8.75 1.875 0
-8.125 1.875 0
-8.125 1.25 0
-7.5 1.25 0
-8.125 1.875 0
-7.5 1.875 0
-8.75 1.875 0
-8.125 1.875 0
-8.75 2.5 0
-8.125 2.5 0
-8.125 1.875 0
-7.5 1.875 0
-8.125 2.5 0
-7.5 2.5 0
-8.75 -7.5 0
-8.125 -7.5 0
-8.75 -6.875 0
-8.125 -6.875 0
-8.125 -7.5 0
-7.5 -7.5 0
-8.125 -6.875 0
-7.5 -6.875 0
-8.75 -6.875 0
-8.125 -6.875 0
-8.75 -6.25 0
-8.125 -6.25 0
-8.125 -6.875 0
-7.5 -6.875 0
-8.125 -6.25 0
-7.5 -6.25 0
-8.75 -6.25 0
-8.125 -6.25 0
-8.75 -5.625 0
-8.125 -5.625 0
-8.125 -6.25 0
-7.5 -6.25 0
-8.125 -5.625 0
-7.5 -5.625 0
-8.75 -5.625 0
-8.125 -5.625 0
-8.75 -5 0
-8.125 -5 0
-8.125 -5.625 0
-7.5 -5.625 0
-8.125 -5 0
-7.5 -5 0
-5 -8.75 0
-4.375 -8.75 0
-5 -8.125 0
-4.375 -8.125 0
-4.375 -8.75 0
-3.75 -8.75 0
-4.375 -8.125 0
-3.75 -8.125 0
-5 -8.125 0
-4.375 -8.125 0
-5 -7.5 0
-4.375 -7.5 0
-4.375 -8.125 0
-3.75 -8.125 0
-4.375 -7.5 0
-3.75 -7.5 0
-8.75 -8.75 0
-8.125 -8.75 0
-8.75 -8.125 0
-8.125 -8.125 0
-8.125 -8.75 0
-7.5 -8.75 0
-8.125 -8.125 0
-7.5 -8.125 0
-8.75 -8.125 0
-8.125 -8.125 0
-8.75 -7.5 0
-8.125 -7.5 0
-8.125 -8.125 0
-7.5 -8.125 0
-8.125 -7.5 0
-7.5 -7.5 0
-3.75 -8.75 0
-3.125 -8.75 0
-3.75 -8.125 0
-3.125 -8.125 0
-3.125 -8.75 0
-2.5 -8.75 0
-3.125 -8.125 0
-2.5 -8.125 0
-3.75 -8.125 0
-3.125 -8.125 0
-3.75 -7.5 0
-3.125 -7.5 0
-3.125 -8.125 0
-2.5 -8.125 0
-3.125 -7.5 0
-2.5 -7.5 0
-8.75 2.5 0
-8.125 2.5 0
-8.75 3.125 0
-8.125 3.125 0
-8.125 2.5 0
-7.5 2.5 0
-8.125 3.125 0
-7.5 3.125 0
-8.75 3.125 0
-8.125 3.125 0
-8.75 3.75 0
-8.125 3.75 0
-8.125 3.125 0
-7.5 3.125 0
-8.125 3.75 0
-7.5 3.75 0
-8.75 -5 0
-8.125 -5 0
-8.75 -4.375 0
-8.125 -4.375 0
-8.125 -5 0
-7.5 -5 0
-8.125 -4.375 0
-7.5 -4.375 0
-8.75 -4.375 0
-8.125 -4.375 0
-8.75 -3.75 0
-8.125 -3.75 0
-8.125 -4.375 0
-7.5 -4.375 0
-8.125 -3.75 0
-7.5 -3.75 0
-10 3.75 0
-9.375 3.75 0
-10 4.375 0
-9.375 4.375 0
-9.375 3.75 0
-8.75 3.75 0
-9.375 4.375 0
-8.75 4.375 0
-10 4.375 0
-9.375 4.375 0
-10 5 0
-9.375 5 0
-9.375 4.375 0
-8.75 4.375 0
-9.375 5 0
-8.75 5 0
-8.125 3.75 0
-7.5 3.75 0
-8.125 4.375 0
-7.5 4.375 0
-8.75 4.375 0
-8.125 4.375 0
-8.75 5 0
-8.125 5 0
-8.125 4.375 0
-7.5 4.375 0
-8.125 5 0
-7.5 5 0
2.5 -10 0
3.125 -10 0
2.5 -9.375 0
3.125 -9.375 0
2.5 -9.375 0
3.125 -9.375 0
2.5 -8.75 0
3.125 -8.75 0
2.5 -8.75 0
3.125 -8.75 0
2.5 -8.125 0
3.125 -8.125 0
3.125 -8.75 0
3.75 -8.75 0
3.125 -8.125 0
3.75 -8.125 0
2.5 -8.125 0
3.125 -8.125 0
2.5 -7.5 0
3.125 -7.5 0
3.125 -8.125 0
3.75 -8.125 0
3.125 -7.5 0
3.75 -7.5 0
5 -8.75 0
5.625 -8.75 0
5 -8.125 0
5.625 -8.125 0
5.625 -8.75 0
6.25 -8.75 0
5.625 -8.125 0
6.25 -8.125 0
5 -8.125 0
5.625 -8.125 0
5 -7.5 0
5.625 -7.5 0
5.625 -8.125 0
6.25 -8.125 0
5.625 -7.5 0
6.25 -7.5 0
5 -10 0
5.625 -10 0
5 -9.375 0
5.625 -9.375 0
5.625 -10 0
6.25 -10 0
5.625 -9.375 0
6.25 -9.375 0
5 -9.375 0
5.625 -9.375 0
5 -8.75 0
5.625 -8.75 0
-10 2.5 0
-9.375 2.5 0
-10 3.125 0
-9.375 3.125 0
-9.375 2.5 0
-8.75 2.5 0
-9.375 3.125 0
-8.75 3.125 0
-10 3.125 0
-9.375 3.125 0
-10 3.75 0
-9.375 3.75 0
-9.375 3.125 0
-8.75 3.125 0
-9.375 3.75 0
-8.75 3.75 0
-2.5 -8.75 0
-1.875 -8.75 0
-2.5 -8.125 0
-1.875 -8.125 0
-1.875 -8.75 0
-1.25 -8.75 0
-1.875 -8.125 0
-1.25 -8.125 0
-2.5 -8.125 0
-1.875 -8.125 0
-2.5 -7.5 0
-1.875 -7.5 0
-1.875 -8.125 0
-1.25 -8.125 0
-1.875 -7.5 0
-1.25 -7.5 0
-1.25 -8.75 0
-0.625 -8.75 0
-1.25 -8.125 0
-0.625 -8.125 0
-0.625 -8.75 0
0 -8.75 0
-0.625 -8.125 0
0 -8.125 0
-1.25 -8.125 0
-0.625 -8.125 0
-1.25 -7.5 0
-0.625 -7.5 0
-0.625 -8.125 0
0 -8.125 0
-0.625 -7.5 0
0 -7.5 0
-8.75 -3.75 0
-8.125 -3.75 0
-8.75 -3.125 0
-8.125 -3.125 0
-8.125 -3.75 0
-7.5 -3.75 0
-8.125 -3.125 0
-7.5 -3.125 0
-8.75 -3.125 0
-8.125 -3.125 0
-8.75 -2.5 0
-8.125 -2.5 0
-8.125 -3.125 0
-7.5 -3.125 0
-8.125 -2.5 0
-7.5 -2.5 0
-8.75 -2.5 0
-8.125 -2.5 0
-8.75 -1.875 0
-8.125 -1.875 0
-8.125 -2.5 0
-7.5 -2.5 0
-8.125 -1.875 0
-7.5 -1.875 0
-8.75 -1.875 0
-8.125 -1.875 0
-8.75 -1.25 0
-8.125 -1.25 0
-8.125 -1.875 0
-7.5 -1.875 0
-8.125 -1.25 0
-7.5 -1.25 0
-8.75 -1.25 0
-8.125 -1.25 0
-8.75 -0.625 0
-8.125 -0.625 0
-8.125 -1.25 0
-7.5 -1.25 0
-8.125 -0.625 0
-7.5 -0.625 0
-8.75 -0.625 0
-8.125 -0.625 0
-8.75 0 0
-8.125 0 0
-8.125 -0.625 0
-7.5 -0.625 0
-8.125 0 0
-7.5 0 0
3.75 -8.75 0
4.375 -8.75 0
3.75 -8.125 0
4.375 -8.125 0
4.375 -8.75 0
5 -8.75 0
4.375 -8.125 0
5 -8.125 0
3.75 -8.125 0
4.375 -8.125 0
3.75 -7.5 0
4.375 -7.5 0
4.375 -8.125 0
5 -8.125 0
4.375 -7.5 0
5 -7.5 0
-8.75 5 0
-8.125 5 0
-8.75 5.625 0
-8.125 5.625 0
-8.125 5 0
-7.5 5 0
-8.125 5.625 0
-7.5 5.625 0
-8.75 5.625 0
-8.125 5.625 0
-8.75 6.25 0
-8.125 6.25 0
-8.125 5.625 0
-7.5 5.625 0
-8.125 6.25 0
-7.5 6.25 0
6.875 -8.75 0
7.5 -8.75 0
6.875 -8.125 0
7.5 -8.125 0
6.25 -8.125 0
6.875 -8.125 0
6.25 -7.5 0
6.875 -7.5 0
6.875 -8.125 0
7.5 -8.125 0
6.875 -7.5 0
7.5 -7.5 0
6.25 -10 0
6.875 -10 0
6.25 -9.375 0
6.875 -9.375 0
6.875 -10 0
7.5 -10 0
6.875 -9.375 0
7.5 -9.375 0
6.25 -9.375 0
6.875 -9.375 0
6.25 -8.75 0
6.875 -8.75 0
6.875 -9.375 0
7.5 -9.375 0
6.875 -8.75 0
7.5 -8.75 0
7.5 -8.75 0
8.125 -8.75 0
7.5 -8.125 0
8.125 -8.125 0
8.125 -8.75 0
8.75 -8.75 0
8.125 -8.125 0
8.75 -8.125 0
7.5 -8.125 0
8.125 -8.125 0
7.5 -7.5 0
8.125 -7.5 0
8.125 -8.125 0
8.75 -8.125 0
8.125 -7.5 0
8.75 -7.5 0
-7.5 5 0
-6.875 5 0
-7.5 5.625 0
-6.875 5.625 0
-6.875 5 0
[...]
POINT_DATA 2200
SCALARS V double 1
LOOKUP_TABLE default
0.0165655 -0.00785273 -0.0255936 0.00714514 -0.00785273 0 0.00714514 0 -0.0255936 0.00714514 0 0 0.00714514 0 0 0 0.000914647 0.00919887 0.00948097 0.00758867 0.00919887 0.0244561 0.00758867 0.00572892 0.00948097 0.00758867 0.0165655 0.00435639 0.00758867 0.00572892 0.00435639 -0.00785273 0.0244561 -0.00492896 0.00572892 0.00705951 -0.00492896 0 0.00705951 0 0.00572892 0.00705951 -0.00785273 -0.00392637 0.00705951 0 -0.00392637 0 -0.00361318 0.00696283 0.0582286 0.0300145 0.00696283 0.0165655 0.0300145 -0.00451404 0.0582286 0.0300145 0.11365 0.0495229 0.0300145 -0.00451404 0.0495229 -0.0255936 0.00763265 0.00297378 0.000285368 0.00609284 0.00297378 0.000914647 0.00609284 0.00948097 0.000285368 0.00609284 -0.00361318 0.00696283 0.00609284 0.00948097 0.00696283 0.0165655 0.11365 0.0495229 0.0530908 0.026049 0.0495229 -0.0255936 0.026049 -0.0127968 0.0530908 0.026049 0 0 0.026049 -0.0127968 0 0 0.0212702 0.174756 0.0144739 0.0815186 0.174756 0.174708 0.0815186 0.146371 0.0144739 0.0815186 0.00919887 0.0168275 0.0815186 0.146371 0.0168275 0.0244561 -0.00144633 -0.0092804 -0.00971026 -0.00548317 -0.0092804 -0.00335384 -0.00548317 0.000616368 -0.00971026 -0.00548317 -0.00415118 0.000128909 -0.00548317 0.000616368 0.000128909 0.00763265 0.0047411 0.00559048 0.00150982 0.00328572 0.00559048 0.0212702 0.00328572 0.0144739 0.00150982 0.00328572 0.000914647 0.00505676 0.00328572 0.0144739 0.00505676 0.00919887 -0.0119664 -0.00926617 -0.0427082 -0.0147865 -0.00926617 -0.00361318 -0.0147865 0.0273077 -0.0427082 -0.0147865 -0.101848 -0.0208767 -0.0147865 0.0273077 -0.0208767 0.0582286 -0.00335384 0.00265721 0.000616368 -0.00251589 0.00265721 -0.000325836 -0.00251589 0.00072152 0.000616368 -0.00251589 0.00763265 0.00530321 -0.00251589 0.00072152 0.00530321 0.00297378 0.174708 -0.168361 0.146371 -0.0475658 -0.168361 -0.430805 -0.0475658 -0.217867 0.146371 -0.0475658 0.0244561 0.00976357 -0.0475658 -0.217867 0.00976357 -0.00492896 -0.101848 -0.0208767 -0.426972 -0.164764 -0.0208767 0.0582286 -0.164764 0.0859391 -0.426972 -0.164764 -0.656284 -0.322972 -0.164764 0.0859391 -0.322972 0.11365 -0.00415118 0.000128909 0.00340083 -0.00266565 0.000128909 0.00763265 -0.00266565 0.00395901 0.00340083 -0.00266565 0.00161558 0.00054012 -0.00266565 0.00395901 0.00054012 0.000285368 3.47211 1.25794 2.85209 1.10073 2.85209 1.10073 2.23207 0.817094 1.10073 -0.616011 0.817094 -0.558757 2.23207 1.61205 0.774631 0.721631 1.61205 0.992032 0.721631 0.372012 0.721631 0.372012 -0.215402 0 -0.322972 0.11365 -0.307 0.0833702 -0.616011 -0.307 -0.558757 -0.262111 -0.307 0.0833702 -0.262111 0.0530908 -0.000325836 0.00133242 0.00072152 0.00128946 0.00133242 0.0047411 0.00128946 0.00150982 0.00072152 0.00128946 0.00297378 0.00194421 0.00128946 0.00150982 0.00194421 0.000914647 0.00161558 0.00054012 -0.00485852 -0.00407047 0.00054012 0.000285368 -0.00407047 -0.00166391 -0.00485852 -0.00407047 -0.0119664 -0.00926617 -0.00407047 -0.00166391 -0.00926617 -0.00361318 2.23207 0.817094 1.61205 0.691328 1.61205 0.691328 0.992032 0.372012 0.691328 -0.276678 0.372012 0 -0.262111 0.0530908 -0.134827 0.0265454 -0.276678 -0.134827 0 0 -0.134827 0.0265454 0 0 -0.430805 -0.215402 -0.217867 -0.108933 -0.215402 0 -0.108933 0 -0.217867 -0.108933 -0.00492896 -0.00246448 -0.108933 0 -0.00246448 0 0.00496513 -0.00273141 0.0147388 0.0220524 -0.00273141 0.00603166 0.0220524 0.0278107 0.0147388 0.0220524 -0.00144633 -0.00536337 0.0220524 0.0278107 -0.00536337 -0.0092804 0.0209956 0.00565221 0.0046516 0.0174589 0.00565221 -0.0367259 0.0174589 0.020631 0.0046516 0.0174589 0.0047411 0.00516579 0.0174589 0.020631 0.00516579 0.00559048 -0.0367259 -0.0369994 0.020631 -0.00433486 -0.0369994 0.041384 -0.00433486 -0.00576774 0.020631 -0.00433486 0.00559048 0.0134303 -0.00433486 -0.00576774 0.0134303 0.0212702 0.00603166 0.00610981 0.0278107 0.0271648 0.00610981 0.0014485 0.0271648 0.0263536 0.0278107 0.0271648 -0.0092804 -0.00631712 0.0271648 0.0263536 -0.00631712 -0.00335384 0.0233663 -0.00190935 0.00764504 0.00247139 -0.00190935 -0.0119664 0.00247139 -0.0273373 0.00764504 0.00247139 -0.0382167 -0.0095502 0.00247139 -0.0273373 -0.0095502 -0.0427082 -0.0382167 -0.0095502 -0.0490286 -0.0439102 -0.0095502 -0.0427082 -0.0439102 -0.0722782 -0.0490286 -0.0439102 -0.0920059 -0.157952 -0.0439102 -0.0722782 -0.157952 -0.101848 0.00496929 0.0147253 -0.0027023 0.0219685 0.0147253 -0.00144633 0.0219685 -0.0055783 -0.0027023 0.0219685 0.00609029 0.0276394 0.0219685 -0.0055783 0.0276394 -0.00971026 0.00609029 0.0276394 0.00620354 0.0268921 0.0276394 -0.00971026 0.0268921 -0.00693072 0.00620354 0.0268921 0.00154413 0.0260763 0.0268921 -0.00693072 0.0260763 -0.00415118 0.0014485 0.0091579 0.0263536 0.0225226 0.0091579 0.031909 0.0225226 0.00278644 0.0263536 0.0225226 -0.00335384 -0.000348318 0.0225226 0.00278644 -0.000348318 0.00265721 0.0204222 0.0356972 0.035697 0.0254326 0.0356972 0.00496513 0.0254326 0.0147388 0.035697 0.0254326 0.00496929 0.0147253 0.0254326 0.0147388 0.0147253 -0.00144633 0.031909 0.0298555 0.00278644 -5.31383e-05 0.0298555 0.0280866 -5.31383e-05 -0.000388959 0.00278644 -5.31383e-05 0.00265721 0.00116569 -5.31383e-05 -0.000388959 0.00116569 -0.000325836 -0.0920059 -0.157952 -0.470064 -0.452445 -0.157952 -0.101848 -0.452445 -0.26441 -0.470064 -0.452445 -0.553374 -0.679252 -0.452445 -0.26441 -0.679252 -0.426972 0.00154413 0.0260763 0.00915172 0.0224665 0.0260763 -0.00415118 0.0224665 -0.000375176 0.00915172 0.0224665 0.0317925 0.00303924 0.0224665 -0.000375176 0.00303924 0.00340083 4.09213 1.4299 3.78212 1.9748 1.4299 -0.553374 1.9748 0.320588 3.78212 1.9748 3.47211 2.36502 1.9748 0.320588 2.36502 1.25794 -0.679252 -0.426972 -0.263713 -0.541628 0.320588 -0.263713 1.25794 0.300826 -0.263713 -0.541628 0.300826 -0.656284 4.71215 4.40214 0.941092 0.785499 0.941092 0.785499 0.041384 0.0293604 0.041384 0.0293604 -0.00576774 0.0334913 0.0293604 -0.0385016 0.0334913 0.0751312 -0.00576774 0.0334913 0.0212702 0.098013 0.0334913 0.0751312 0.098013 0.174756 -0.298995 -0.358198 -0.151709 -0.316141 -0.358198 -0.469875 -0.316141 -0.394081 -0.151709 -0.316141 0.174708 0.00317386 -0.316141 -0.394081 0.00317386 -0.168361 3.47211 3.1621 1.22235 1.19816 3.1621 2.85209 1.19816 1.19111 1.22235 1.19816 -0.298995 -0.358198 4.71215 0.883752 4.40214 0.77104 0.883752 -0.0920059 0.77104 -0.470064 4.40214 0.77104 4.09213 1.4299 0.77104 -0.470064 1.4299 -0.553374 0.0280866 0.0272496 -0.000388959 4.02248e-05 0.0272496 0.0260345 4.02248e-05 0.000995347 -0.000388959 4.02248e-05 -0.000325836 0.000503292 4.02248e-05 0.000995347 0.000503292 0.00133242 0.0260345 0.0264517 0.000995347 0.000942773 0.0264517 0.0209956 0.000942773 0.0046516 0.000995347 0.000942773 0.00133242 0.00303676 0.000942773 0.0046516 0.00303676 0.0047411 0.0317925 0.00303924 0.0295853 0.000616812 0.00303924 0.00340083 0.000616812 0.00250821 0.0295853 0.000616812 0.0277837 0.000344597 0.000616812 0.00250821 0.000344597 0.00161558 0.0277837 0.000344597 0.0275391 -0.000767711 0.000344597 0.00161558 -0.000767711 -0.00162147 0.0275391 -0.000767711 0.0270521 -0.00174717 -0.000767711 -0.00162147 -0.00174717 -0.00485852 0.0270521 -0.00174717 0.0280954 -0.0032254 -0.00174717 -0.00485852 -0.0032254 -0.00841248 0.0280954 -0.0032254 0.0233663 -0.00190935 -0.0032254 -0.00841248 -0.00190935 -0.0119664 -0.0385016 -0.173408 0.0751312 -0.0199812 -0.173408 -0.298995 -0.0199812 -0.151709 0.0751312 -0.0199812 0.174756 0.174732 -0.0199812 -0.151709 0.174732 0.174708 1.25794 0.300826 1.17933 0.271592 0.300826 -0.656284 0.271592 -0.636148 1.17933 0.271592 1.10073 0.242358 0.271592 -0.636148 0.242358 -0.616011 0.152378 0.774631 -0.141154 0.171913 -0.394081 -0.141154 -0.168361 -0.299583 -0.141154 0.171913 -0.299583 -0.430805 2.85209 2.54208 1.19111 1.34723 2.54208 2.23207 1.34723 1.50335 1.19111 1.34723 -0.469875 0.152378 1.34723 1.50335 0.152378 0.774631 0.774631 0.748131 0.171913 0.212514 0.748131 0.721631 0.212514 0.253114 0.171913 0.212514 -0.430805 -0.323104 0.212514 0.253114 -0.323104 -0.215402 -0.656284 -0.489628 -0.636148 -0.475567 -0.489628 -0.322972 -0.475567 -0.314986 -0.636148 -0.475567 -0.616011 -0.461506 -0.475567 -0.314986 -0.461506 -0.307 0.817094 0.129169 0.754211 0.168247 0.129169 -0.558757 0.168247 -0.417718 0.754211 0.168247 0.691328 0.207325 0.168247 -0.417718 0.207325 -0.276678 -0.558757 -0.410434 -0.417718 -0.308093 -0.410434 -0.262111 -0.308093 -0.198469 -0.417718 -0.308093 -0.276678 -0.205753 -0.308093 -0.198469 -0.205753 -0.134827 10.9124 10.7573 10.7573 7.21725 10.7573 10.6023 7.21725 5.1257 10.7573 7.21725 10.6023 5.1257 7.21725 5.1257 5.1257 1.93759 10.6023 10.4473 5.1257 4.47951 10.4473 10.2923 4.47951 4.39819 5.1257 4.47951 1.93759 1.01852 4.47951 4.39819 1.01852 0.99194 10.6023 5.1257 10.4473 4.47951 5.1257 1.93759 4.47951 1.01852 10.4473 4.47951 10.2923 4.39819 4.47951 1.01852 4.39819 0.99194 1.93759 1.01852 1.01852 0.0427027 1.01852 0.99194 0.0427027 0.0350229 1.01852 0.0427027 0.99194 0.035023 0.0427027 0.0350229 0.035023 0.0204222 10.2923 10.1373 4.39819 4.35508 10.1373 9.98232 4.35508 4.28257 4.39819 4.35508 0.99194 1.02231 4.35508 4.28257 1.02231 0.999025 9.98232 9.82732 4.28257 4.20972 9.82732 9.67231 4.20972 4.14335 4.28257 4.20972 0.999025 0.970136 4.20972 4.14335 0.970136 0.946213 0.946213 0.927199 0.0443307 0.0268361 0.927199 0.912086 0.0268361 0.021536 0.0443307 0.0268361 0.00496513 0.00111686 0.0268361 0.021536 0.00111686 -0.00273141 0.912086 0.897645 0.021536 0.0234634 0.897645 0.882786 0.0234634 0.0251375 0.021536 0.0234634 -0.00273141 0.00165013 0.0234634 0.0251375 0.00165013 0.00603166 10.2923 4.39819 10.1373 4.35508 4.39819 0.99194 4.35508 1.02231 10.1373 4.35508 9.98232 4.28257 4.35508 1.02231 4.28257 0.999025 0.882786 0.867799 0.0251375 0.0246927 0.867799 0.852501 0.0246927 0.0239028 0.0251375 0.0246927 0.00603166 0.00607074 0.0246927 0.0239028 0.00607074 0.00610981 9.98232 4.28257 9.82732 4.20972 4.28257 0.999025 4.20972 0.970137 9.82732 4.20972 9.67231 4.14335 4.20972 0.970137 4.14335 0.946214 0.852501 0.837303 0.0239028 0.0233712 0.837303 0.821353 0.0233712 0.019721 0.0239028 0.0233712 0.00610981 0.00377916 0.0233712 0.019721 0.00377916 0.0014485 9.67231 9.51731 4.14335 4.08091 9.51731 9.3623 4.08091 4.01642 4.14335 4.08091 0.946213 0.927199 4.08091 4.01642 0.927199 0.912086 9.3623 9.2073 4.01642 3.94957 9.2073 9.05229 3.94957 3.88287 4.01642 3.94957 0.912086 0.897645 3.94957 3.88287 0.897645 0.882786 0.946214 0.0443355 0.927203 0.0268505 0.0443355 0.00496929 0.0268505 0.00113349 0.927203 0.0268505 0.912095 0.0215636 0.0268505 0.00113349 0.0215636 -0.0027023 0.912095 0.0215636 0.897657 0.0235044 0.0215636 -0.0027023 0.0235044 0.001694 0.897657 0.0235044 0.882803 0.0251926 0.0235044 0.001694 0.0251926 0.00609029 9.05229 8.89729 3.88287 3.81643 8.89729 8.74228 3.81643 3.74999 3.88287 3.81643 0.882786 0.867799 3.81643 3.74999 0.867799 0.852501 8.74228 8.58728 3.74999 3.68343 8.58728 8.43227 3.68343 3.61751 3.74999 3.68343 0.852501 0.837303 3.68343 3.61751 0.837303 0.821353 0.882803 0.0251926 0.86782 0.0247625 0.0251926 0.00609029 0.0247625 0.00614691 0.86782 0.0247625 0.852525 0.0239865 0.0247625 0.00614691 0.0239865 0.00620354 0.852525 0.0239865 0.83733 0.0234654 0.0239865 0.00620354 0.0234654 0.00387383 0.83733 0.0234654 0.821378 0.0198064 0.0234654 0.00387383 0.0198064 0.00154413 9.67231 4.14335 9.51731 4.08091 4.14335 0.946214 4.08091 0.927203 9.51731 4.08091 9.3623 4.01642 4.08091 0.927203 4.01642 0.912095 0.821353 0.808901 0.019721 0.0323077 0.808901 0.806118 0.0323077 0.0769249 0.019721 0.0323077 0.0014485 0.0053032 0.0323077 0.0769249 0.0053032 0.0091579 9.3623 4.01642 9.2073 3.94957 4.01642 0.912095 3.94957 0.897657 9.2073 3.94957 9.05229 3.88287 3.94957 0.897657 3.88287 0.882803 0.99194 1.02231 0.0350229 0.0892019 1.02231 0.999025 0.0892019 0.0797669 0.0350229 0.0892019 0.0204222 0.0280597 0.0892019 0.0797669 0.0280597 0.0356972 9.05229 3.88287 8.89729 3.81643 3.88287 0.882803 3.81643 0.86782 8.89729 3.81643 8.74228 3.74998 3.81643 0.86782 3.74998 0.852525 0.999025 0.970136 0.0797669 0.0634569 0.970136 0.946213 0.0634569 0.0443307 0.0797669 0.0634569 0.0356972 0.0203312 0.0634569 0.0443307 0.0203312 0.00496513 8.74228 3.74998 8.58728 3.68342 3.74998 0.852525 3.68342 0.83733 8.58728 3.68342 8.43227 3.61751 3.68342 0.83733 3.61751 0.821378 0.99194 0.035023 1.02231 0.0892019 0.035023 0.0204222 0.0892019 0.0280596 1.02231 0.0892019 0.999025 0.079767 0.0892019 0.0280596 0.079767 0.035697 8.43227 8.27727 3.61751 3.549 8.27727 8.12226 3.549 3.47635 3.61751 3.549 0.821353 0.808901 3.549 3.47635 0.808901 0.806118 8.12226 7.96726 3.47635 3.40805 7.96726 7.81225 3.40805 3.34319 3.47635 3.40805 0.806118 0.800944 3.40805 3.34319 0.800944 0.790894 0.999025 0.079767 0.970137 0.0634576 0.079767 0.035697 0.0634576 0.0203331 0.970137 0.0634576 0.946214 0.0443355 0.0634576 0.0203331 0.0443355 0.00496929 0.806118 0.800944 0.0769249 0.108032 0.800944 0.790894 0.108032 0.114682 0.0769249 0.108032 0.0091579 0.0205334 0.108032 0.114682 0.0205334 0.031909 7.81225 7.65725 3.34319 3.27686 7.65725 7.50224 3.27686 3.2101 3.34319 3.27686 0.790894 0.775734 3.27686 3.2101 0.775734 0.758459 7.50224 7.34724 3.2101 3.14376 7.34724 7.19223 3.14376 3.07756 3.2101 3.14376 0.758459 0.742649 3.14376 3.07756 0.742649 0.727379 0.790894 0.775734 0.114682 0.113359 0.775734 0.758459 0.113359 0.109755 0.114682 0.113359 0.031909 0.0308823 0.113359 0.109755 0.0308823 0.0298555 0.758459 0.742649 0.109755 0.107189 0.742649 0.727379 0.107189 0.105226 0.109755 0.107189 0.0298555 0.028971 0.107189 0.105226 0.028971 0.0280866 7.19223 7.03723 3.07756 3.01125 7.03723 6.88222 3.01125 2.94485 3.07756 3.01125 0.727379 0.711728 3.01125 2.94485 0.711728 0.695897 6.88222 6.72722 2.94485 2.87846 6.72722 6.57221 2.87846 2.81217 2.94485 2.87846 0.695897 0.680085 2.87846 2.81217 0.680085 0.664545 0.821378 0.0198064 0.808915 0.0323574 0.0198064 0.00154413 0.0323574 0.00534793 0.808915 0.0323574 0.806117 0.0769227 0.0323574 0.00534793 0.0769227 0.00915172 0.727379 0.711728 0.105226 0.102957 0.711728 0.695897 0.102957 0.100627 0.105226 0.102957 0.0280866 0.0276681 0.102957 0.100627 0.0276681 0.0272496 6.57221 6.41721 2.81217 2.7467 6.41721 6.2622 2.7467 2.67825 2.81217 2.7467 0.664545 0.64961 2.7467 2.67825 0.64961 0.632514 6.2622 6.1072 2.67825 2.60831 6.1072 5.95219 2.60831 2.55636 2.67825 2.60831 0.632514 0.606733 2.60831 2.55636 0.606733 0.617876 0.695897 0.680085 0.100627 0.0984359 0.680085 0.664545 0.0984359 0.0963695 0.100627 0.0984359 0.0272496 0.0266421 0.0984359 0.0963695 0.0266421 0.0260345 0.664545 0.64961 0.0963695 0.094416 0.64961 0.632514 0.094416 0.0905661 0.0963695 0.094416 0.0260345 0.0262431 0.094416 0.0905661 0.0262431 0.0264517 8.43227 3.61751 8.27727 3.549 3.61751 0.821378 3.549 0.808915 8.27727 3.549 8.12226 3.47635 3.549 0.808915 3.47635 0.806117 0.632514 0.606733 0.0905661 0.085884 0.606733 0.617876 0.085884 0.088016 0.0905661 0.085884 0.0264517 0.0237237 0.085884 0.088016 0.0237237 0.0209956 8.12226 3.47635 7.96726 3.40805 3.47635 0.806117 3.40805 0.800928 7.96726 3.40805 7.81225 3.3432 3.40805 0.800928 3.3432 0.790861 0.806117 0.0769227 0.800928 0.107979 0.0769227 0.00915172 0.107979 0.0204721 0.800928 0.107979 0.790861 0.114579 0.107979 0.0204721 0.114579 0.0317925 7.81225 3.3432 7.65725 3.27686 3.3432 0.790861 3.27686 0.775686 7.65725 3.27686 7.50224 3.21011 3.27686 0.775686 3.21011 0.758398 0.790861 0.114579 0.775686 0.113204 0.114579 0.0317925 0.113204 0.0306889 0.775686 0.113204 0.758398 0.109551 0.113204 0.0306889 0.109551 0.0295853 7.50224 3.21011 7.34724 3.14378 3.21011 0.758398 3.14378 0.742585 7.34724 3.14378 7.19223 3.07757 3.14378 0.742585 3.07757 0.727328 0.758398 0.109551 0.742585 0.106937 0.109551 0.0295853 0.106937 0.0286845 0.742585 0.106937 0.727328 0.10501 0.106937 0.0286845 0.10501 0.0277837 7.19223 3.07757 7.03723 3.01125 3.07757 0.727328 3.01125 0.711714 7.03723 3.01125 6.88222 2.94483 3.01125 0.711714 2.94483 0.695935 0.727328 0.10501 0.711714 0.102923 0.10501 0.0277837 0.102923 0.0276614 0.711714 0.102923 0.695935 0.100861 0.102923 0.0276614 0.100861 0.0275391 6.88222 2.94483 6.72722 2.87842 2.94483 0.695935 2.87842 0.680186 6.72722 2.87842 6.57221 2.81212 2.87842 0.680186 2.81212 0.664718 0.695935 0.100861 0.680186 0.0989397 0.100861 0.0275391 0.0989397 0.0272956 0.680186 0.0989397 0.664718 0.0971524 0.0989397 0.0272956 0.0971524 0.0270521 6.57221 2.81212 6.41721 2.74663 2.81212 0.664718 2.74663 0.649866 6.41721 2.74663 6.2622 2.67815 2.74663 0.649866 2.67815 0.632853 0.664718 0.0971524 0.649866 0.0954951 0.0971524 0.0270521 0.0954951 0.0275738 0.649866 0.0954951 0.632853 0.091945 0.0954951 0.0275738 0.091945 0.0280954 6.2622 2.67815 6.1072 2.60819 2.67815 0.632853 2.60819 0.607155 6.1072 2.60819 5.95219 2.55622 2.60819 0.607155 2.55622 0.618402 0.632853 0.091945 0.607155 0.0875443 0.091945 0.0280954 0.0875443 0.0257308 0.607155 0.0875443 0.618402 0.0899612 0.0875443 0.0257308 0.0899612 0.0233663 5.95219 5.79719 2.55636 2.67347 5.79719 5.64218 2.67347 2.96529 2.55636 2.67347 0.617876 0.71148 2.67347 2.96529 0.71148 0.841346 0.617876 0.71148 0.088016 0.123534 0.71148 0.841346 0.123534 0.183706 0.088016 0.123534 0.0209956 0.0133239 0.123534 0.183706 0.0133239 0.00565221 5.33217 5.17717 3.07949 3.03906 5.17717 5.02216 3.03906 2.99863 3.07949 3.03906 0.826802 0.900946 3.03906 2.99863 0.900946 0.975089 5.64218 5.48718 2.96529 2.99919 5.48718 5.33217 2.99919 3.07949 2.96529 2.99919 0.841346 0.925828 2.99919 3.07949 0.925828 0.826802 0.841346 0.925828 0.183706 0.214168 0.925828 0.826802 0.214168 0.395038 0.183706 0.214168 0.00565221 -0.0155368 0.214168 0.395038 -0.0155368 -0.0367259 0.975089 0.958091 0.469045 0.356225 0.958091 0.941092 0.356225 0.348684 0.469045 0.356225 -0.0369994 0.00219232 0.356225 0.348684 0.00219232 0.041384 0.618402 0.0899612 0.712164 0.125823 0.0899612 0.0233663 0.125823 0.0155057 0.712164 0.125823 0.842398 0.185877 0.125823 0.0155057 0.185877 0.00764504 5.02216 4.86716 2.99863 2.91262 4.86716 4.71215 2.91262 2.82662 2.99863 2.91262 0.975089 0.958091 2.91262 2.82662 0.958091 0.941092 0.826802 0.900946 0.395038 0.432042 0.900946 0.975089 0.432042 0.469045 0.395038 0.432042 -0.0367259 -0.0368626 0.432042 0.469045 -0.0368626 -0.0369994 4.40214 4.24714 2.45765 2.27562 4.24714 4.09213 2.27562 2.24592 2.45765 2.27562 0.785499 0.667204 2.27562 2.24592 0.667204 0.399713 5.95219 2.55622 5.79719 2.67344 2.55622 0.618402 2.67344 0.712164 5.79719 2.67344 5.64218 2.9657 2.67344 0.712164 2.9657 0.842398 -0.553374 -0.616313 -0.116393 -0.293938 -0.616313 -0.679252 -0.293938 -0.471482 -0.116393 -0.293938 0.320588 0.0284377 -0.293938 -0.471482 0.0284377 -0.263713 0.785499 0.667204 0.235851 0.139069 0.667204 0.399713 0.139069 0.180606 0.235851 0.139069 0.0293604 -0.00457058 0.139069 0.180606 -0.00457058 -0.0385016 5.64218 2.9657 5.48718 2.99984 2.9657 0.842398 2.99984 0.926821 5.48718 2.99984 5.33217 3.08118 2.99984 0.926821 3.08118 0.830186 0.842398 0.185877 0.926821 0.215614 0.185877 0.00764504 0.215614 -0.0152858 0.926821 0.215614 0.830186 0.395985 0.215614 -0.0152858 0.395985 -0.0382167 5.33217 3.08118 5.17717 3.03977 3.08118 0.830186 3.03977 0.902373 5.17717 3.03977 5.02216 2.99836 3.03977 0.902373 2.99836 0.974559 0.830186 0.395985 0.902373 0.429375 0.395985 -0.0382167 0.429375 -0.0436227 0.902373 0.429375 0.974559 0.462765 0.429375 -0.0436227 0.462765 -0.0490286 0.974559 0.462765 0.929156 0.311801 0.462765 -0.0490286 0.311801 -0.0705173 0.929156 0.311801 0.883752 0.247101 0.311801 -0.0705173 0.247101 -0.0920059 5.02216 2.99836 4.86716 2.89816 2.99836 0.974559 2.89816 0.929156 4.86716 2.89816 4.71215 2.79795 2.89816 0.929156 2.79795 0.883752 1.19816 1.19463 0.419981 0.390299 1.19463 1.19111 0.390299 0.360617 0.419981 0.390299 -0.358198 -0.414036 0.390299 0.360617 -0.414036 -0.469875 4.09213 3.93713 2.24592 2.21017 3.93713 3.78212 2.21017 2.17442 2.24592 2.21017 0.399713 0.483221 2.21017 2.17442 0.483221 0.566728 3.78212 3.62712 2.17442 2.26083 3.62712 3.47211 2.26083 2.34723 