# vtk DataFile Version 3.0
#This file was generated by the deal.II library on 2015/5/12 at 16: 3:47
ASCII
DATASET UNSTRUCTURED_GRID

POINTS 2344 double
0 0 0
5 0 0
0 5 0
5 5 0
5 0 0
10 0 0
5 5 0
10 5 0
0 5 0
5 5 0
0 10 0
5 10 0
5 5 0
10 5 0
5 10 0
10 10 0
0 -5 0
2.5 -5 0
0 -2.5 0
2.5 -2.5 0
2.5 -5 0
5 -5 0
2.5 -2.5 0
5 -2.5 0
0 -2.5 0
2.5 -2.5 0
0 0 0
2.5 0 0
2.5 -2.5 0
5 -2.5 0
2.5 0 0
5 0 0
5 -5 0
7.5 -5 0
5 -2.5 0
7.5 -2.5 0
7.5 -5 0
10 -5 0
7.5 -2.5 0
10 -2.5 0
5 -2.5 0
7.5 -2.5 0
5 0 0
7.5 0 0
7.5 -2.5 0
10 -2.5 0
7.5 0 0
10 0 0
-5 0 0
-2.5 0 0
-5 2.5 0
-2.5 2.5 0
-2.5 0 0
0 0 0
-2.5 2.5 0
0 2.5 0
-5 2.5 0
-2.5 2.5 0
-5 5 0
-2.5 5 0
-2.5 2.5 0
0 2.5 0
-2.5 5 0
0 5 0
-5 -5 0
-2.5 -5 0
-5 -2.5 0
-2.5 -2.5 0
-2.5 -5 0
0 -5 0
-2.5 -2.5 0
0 -2.5 0
-5 -2.5 0
-2.5 -2.5 0
-5 0 0
-2.5 0 0
-2.5 -2.5 0
0 -2.5 0
-2.5 0 0
0 0 0
-2.5 5 0
0 5 0
-2.5 7.5 0
0 7.5 0
-5 7.5 0
-2.5 7.5 0
-5 10 0
-2.5 10 0
-2.5 7.5 0
0 7.5 0
-2.5 10 0
0 10 0
2.5 -7.5 0
3.75 -7.5 0
2.5 -6.25 0
3.75 -6.25 0
3.75 -7.5 0
5 -7.5 0
3.75 -6.25 0
5 -6.25 0
2.5 -6.25 0
3.75 -6.25 0
2.5 -5 0
3.75 -5 0
3.75 -6.25 0
5 -6.25 0
3.75 -5 0
5 -5 0
-7.5 -7.5 0
-6.25 -7.5 0
-7.5 -6.25 0
-6.25 -6.25 0
-6.25 -7.5 0
-5 -7.5 0
-6.25 -6.25 0
-5 -6.25 0
-7.5 -6.25 0
-6.25 -6.25 0
-7.5 -5 0
-6.25 -5 0
-6.25 -6.25 0
-5 -6.25 0
-6.25 -5 0
-5 -5 0
0 -7.5 0
1.25 -7.5 0
0 -6.25 0
1.25 -6.25 0
1.25 -7.5 0
2.5 -7.5 0
1.25 -6.25 0
2.5 -6.25 0
0 -6.25 0
1.25 -6.25 0
0 -5 0
1.25 -5 0
1.25 -6.25 0
2.5 -6.25 0
1.25 -5 0
2.5 -5 0
-7.5 0 0
-6.25 0 0
-7.5 1.25 0
-6.25 1.25 0
-6.25 0 0
-5 0 0
-6.25 1.25 0
-5 1.25 0
-7.5 1.25 0
-6.25 1.25 0
-7.5 2.5 0
-6.25 2.5 0
-6.25 1.25 0
-5 1.25 0
-6.25 2.5 0
-5 2.5 0
-5 -7.5 0
-3.75 -7.5 0
-5 -6.25 0
-3.75 -6.25 0
-3.75 -7.5 0
-2.5 -7.5 0
-3.75 -6.25 0
-2.5 -6.25 0
-5 -6.25 0
-3.75 -6.25 0
-5 -5 0
-3.75 -5 0
-3.75 -6.25 0
-2.5 -6.25 0
-3.75 -5 0
-2.5 -5 0
5 -7.5 0
6.25 -7.5 0
5 -6.25 0
6.25 -6.25 0
6.25 -7.5 0
7.5 -7.5 0
6.25 -6.25 0
7.5 -6.25 0
5 -6.25 0
6.25 -6.25 0
5 -5 0
6.25 -5 0
6.25 -6.25 0
7.5 -6.25 0
6.25 -5 0
7.5 -5 0
-7.5 2.5 0
-6.25 2.5 0
-7.5 3.75 0
-6.25 3.75 0
-6.25 2.5 0
-5 2.5 0
-6.25 3.75 0
-5 3.75 0
-6.25 3.75 0
-5 3.75 0
-6.25 5 0
-5 5 0
-7.5 -5 0
-6.25 -5 0
-7.5 -3.75 0
-6.25 -3.75 0
-6.25 -5 0
-5 -5 0
-6.25 -3.75 0
-5 -3.75 0
-7.5 -3.75 0
-6.25 -3.75 0
-7.5 -2.5 0
-6.25 -2.5 0
-6.25 -3.75 0
-5 -3.75 0
-6.25 -2.5 0
-5 -2.5 0
-10 5 0
-8.75 5 0
-10 6.25 0
-8.75 6.25 0
-10 6.25 0
-8.75 6.25 0
-10 7.5 0
-8.75 7.5 0
-8.75 6.25 0
-7.5 6.25 0
-8.75 7.5 0
-7.5 7.5 0
7.5 -10 0
8.75 -10 0
7.5 -8.75 0
8.75 -8.75 0
8.75 -10 0
10 -10 0
8.75 -8.75 0
10 -8.75 0
7.5 -8.75 0
8.75 -8.75 0
7.5 -7.5 0
8.75 -7.5 0
8.75 -8.75 0
10 -8.75 0
8.75 -7.5 0
10 -7.5 0
-6.25 5 0
-5 5 0
-6.25 6.25 0
-5 6.25 0
-7.5 6.25 0
-6.25 6.25 0
-7.5 7.5 0
-6.25 7.5 0
-6.25 6.25 0
-5 6.25 0
-6.25 7.5 0
-5 7.5 0
-2.5 -7.5 0
-1.25 -7.5 0
-2.5 -6.25 0
-1.25 -6.25 0
-1.25 -7.5 0
0 -7.5 0
-1.25 -6.25 0
0 -6.25 0
-2.5 -6.25 0
-1.25 -6.25 0
-2.5 -5 0
-1.25 -5 0
-1.25 -6.25 0
0 -6.25 0
-1.25 -5 0
0 -5 0
-7.5 -2.5 0
-6.25 -2.5 0
-7.5 -1.25 0
-6.25 -1.25 0
-6.25 -2.5 0
-5 -2.5 0
-6.25 -1.25 0
-5 -1.25 0
-7.5 -1.25 0
-6.25 -1.25 0
-7.5 0 0
-6.25 0 0
-6.25 -1.25 0
-5 -1.25 0
-6.25 0 0
-5 0 0
-10 7.5 0
-8.75 7.5 0
-10 8.75 0
-8.75 8.75 0
-8.75 7.5 0
-7.5 7.5 0
-8.75 8.75 0
-7.5 8.75 0
-10 8.75 0
-8.75 8.75 0
-10 10 0
-8.75 10 0
-8.75 8.75 0
-7.5 8.75 0
-8.75 10 0
-7.5 10 0
-7.5 7.5 0
-6.25 7.5 0
-7.5 8.75 0
-6.25 8.75 0
-6.25 7.5 0
-5 7.5 0
-6.25 8.75 0
-5 8.75 0
-7.5 8.75 0
-6.25 8.75 0
-7.5 10 0
-6.25 10 0
-6.25 8.75 0
-5 8.75 0
-6.25 10 0
-5 10 0
8.75 -7.5 0
10 -7.5 0
8.75 -6.25 0
10 -6.25 0
7.5 -6.25 0
8.75 -6.25 0
7.5 -5 0
8.75 -5 0
8.75 -6.25 0
10 -6.25 0
8.75 -5 0
10 -5 0
-5 5 0
-3.75 5 0
-5 6.25 0
-3.75 6.25 0
-3.75 5 0
-2.5 5 0
-3.75 6.25 0
-2.5 6.25 0
-5 6.25 0
-3.75 6.25 0
-5 7.5 0
-3.75 7.5 0
-3.75 6.25 0
-2.5 6.25 0
-3.75 7.5 0
-2.5 7.5 0
-7.5 -8.75 0
-6.875 -8.75 0
-7.5 -8.125 0
-6.875 -8.125 0
-6.875 -8.75 0
-6.25 -8.75 0
-6.875 -8.125 0
-6.25 -8.125 0
-7.5 -8.125 0
-6.875 -8.125 0
-7.5 -7.5 0
-6.875 -7.5 0
-6.875 -8.125 0
-6.25 -8.125 0
-6.875 -7.5 0
-6.25 -7.5 0
0 -8.75 0
0.625 -8.75 0
0 -8.125 0
0.625 -8.125 0
0.625 -8.75 0
1.25 -8.75 0
0.625 -8.125 0
1.25 -8.125 0
0 -8.125 0
0.625 -8.125 0
0 -7.5 0
0.625 -7.5 0
0.625 -8.125 0
1.25 -8.125 0
0.625 -7.5 0
1.25 -7.5 0
1.25 -8.75 0
1.875 -8.75 0
1.25 -8.125 0
1.875 -8.125 0
1.875 -8.75 0
2.5 -8.75 0
1.875 -8.125 0
2.5 -8.125 0
1.25 -8.125 0
1.875 -8.125 0
1.25 -7.5 0
1.875 -7.5 0
1.875 -8.125 0
2.5 -8.125 0
1.875 -7.5 0
2.5 -7.5 0
-6.25 -8.75 0
-5.625 -8.75 0
-6.25 -8.125 0
-5.625 -8.125 0
-5.625 -8.75 0
-5 -8.75 0
-5.625 -8.125 0
-5 -8.125 0
-6.25 -8.125 0
-5.625 -8.125 0
-6.25 -7.5 0
-5.625 -7.5 0
-5.625 -8.125 0
-5 -8.125 0
-5.625 -7.5 0
-5 -7.5 0
-8.75 0 0
-8.125 0 0
-8.75 0.625 0
-8.125 0.625 0
-8.125 0 0
-7.5 0 0
-8.125 0.625 0
-7.5 0.625 0
-8.75 0.625 0
-8.125 0.625 0
-8.75 1.25 0
-8.125 1.25 0
-8.125 0.625 0
-7.5 0.625 0
-8.125 1.25 0
-7.5 1.25 0
-8.75 1.25 0
-8.125 1.25 0
-8.75 1.875 0
-8.125 1.875 0
-8.125 1.25 0
-7.5 1.25 0
-8.125 1.875 0
-7.5 1.875 0
-8.75 1.875 0
-8.125 1.875 0
-8.75 2.5 0
-8.125 2.5 0
-8.125 1.875 0
-7.5 1.875 0
-8.125 2.5 0
-7.5 2.5 0
-8.75 -7.5 0
-8.125 -7.5 0
-8.75 -6.875 0
-8.125 -6.875 0
-8.125 -7.5 0
-7.5 -7.5 0
-8.125 -6.875 0
-7.5 -6.875 0
-8.75 -6.875 0
-8.125 -6.875 0
-8.75 -6.25 0
-8.125 -6.25 0
-8.125 -6.875 0
-7.5 -6.875 0
-8.125 -6.25 0
-7.5 -6.25 0
-8.75 -6.25 0
-8.125 -6.25 0
-8.75 -5.625 0
-8.125 -5.625 0
-8.125 -6.25 0
-7.5 -6.25 0
-8.125 -5.625 0
-7.5 -5.625 0
-8.75 -5.625 0
-8.125 -5.625 0
-8.75 -5 0
-8.125 -5 0
-8.125 -5.625 0
-7.5 -5.625 0
-8.125 -5 0
-7.5 -5 0
-5 -8.75 0
-4.375 -8.75 0
-5 -8.125 0
-4.375 -8.125 0
-4.375 -8.75 0
-3.75 -8.75 0
-4.375 -8.125 0
-3.75 -8.125 0
-5 -8.125 0
-4.375 -8.125 0
-5 -7.5 0
-4.375 -7.5 0
-4.375 -8.125 0
-3.75 -8.125 0
-4.375 -7.5 0
-3.75 -7.5 0
-8.125 -8.75 0
-7.5 -8.75 0
-8.125 -8.125 0
-7.5 -8.125 0
-8.75 -8.125 0
-8.125 -8.125 0
-8.75 -7.5 0
-8.125 -7.5 0
-8.125 -8.125 0
-7.5 -8.125 0
-8.125 -7.5 0
-7.5 -7.5 0
-3.75 -8.75 0
-3.125 -8.75 0
-3.75 -8.125 0
-3.125 -8.125 0
-3.125 -8.75 0
-2.5 -8.75 0
-3.125 -8.125 0
-2.5 -8.125 0
-3.75 -8.125 0
-3.125 -8.125 0
-3.75 -7.5 0
-3.125 -7.5 0
-3.125 -8.125 0
-2.5 -8.125 0
-3.125 -7.5 0
-2.5 -7.5 0
-8.125 2.5 0
-7.5 2.5 0
-8.125 3.125 0
-7.5 3.125 0
-8.125 3.125 0
-7.5 3.125 0
-8.125 3.75 0
-7.5 3.75 0
-8.75 -5 0
-8.125 -5 0
-8.75 -4.375 0
-8.125 -4.375 0
-8.125 -5 0
-7.5 -5 0
-8.125 -4.375 0
-7.5 -4.375 0
-8.75 -4.375 0
-8.125 -4.375 0
-8.75 -3.75 0
-8.125 -3.75 0
-8.125 -4.375 0
-7.5 -4.375 0
-8.125 -3.75 0
-7.5 -3.75 0
-10 3.75 0
-9.375 3.75 0
-10 4.375 0
-9.375 4.375 0
-10 4.375 0
-9.375 4.375 0
-10 5 0
-9.375 5 0
-9.375 4.375 0
-8.75 4.375 0
-9.375 5 0
-8.75 5 0
-8.75 3.75 0
-8.125 3.75 0
-8.75 4.375 0
-8.125 4.375 0
-8.125 3.75 0
-7.5 3.75 0
-8.125 4.375 0
-7.5 4.375 0
-8.75 4.375 0
-8.125 4.375 0
-8.75 5 0
-8.125 5 0
-8.125 4.375 0
-7.5 4.375 0
-8.125 5 0
-7.5 5 0
2.5 -8.75 0
3.125 -8.75 0
2.5 -8.125 0
3.125 -8.125 0
3.125 -8.75 0
3.75 -8.75 0
3.125 -8.125 0
3.75 -8.125 0
2.5 -8.125 0
3.125 -8.125 0
2.5 -7.5 0
3.125 -7.5 0
3.125 -8.125 0
3.75 -8.125 0
3.125 -7.5 0
3.75 -7.5 0
5 -8.125 0
5.625 -8.125 0
5 -7.5 0
5.625 -7.5 0
5.625 -8.125 0
6.25 -8.125 0
5.625 -7.5 0
6.25 -7.5 0
5 -10 0
5.625 -10 0
5 -9.375 0
5.625 -9.375 0
5.625 -10 0
6.25 -10 0
5.625 -9.375 0
6.25 -9.375 0
5.625 -9.375 0
6.25 -9.375 0
5.625 -8.75 0
6.25 -8.75 0
-2.5 -8.75 0
-1.875 -8.75 0
-2.5 -8.125 0
-1.875 -8.125 0
-1.875 -8.75 0
-1.25 -8.75 0
-1.875 -8.125 0
-1.25 -8.125 0
-2.5 -8.125 0
-1.875 -8.125 0
-2.5 -7.5 0
-1.875 -7.5 0
-1.875 -8.125 0
-1.25 -8.125 0
-1.875 -7.5 0
-1.25 -7.5 0
4.375 -10 0
5 -10 0
4.375 -9.375 0
5 -9.375 0
4.375 -9.375 0
5 -9.375 0
4.375 -8.75 0
5 -8.75 0
-1.25 -8.75 0
-0.625 -8.75 0
-1.25 -8.125 0
-0.625 -8.125 0
-0.625 -8.75 0
0 -8.75 0
-0.625 -8.125 0
0 -8.125 0
-1.25 -8.125 0
-0.625 -8.125 0
-1.25 -7.5 0
-0.625 -7.5 0
-0.625 -8.125 0
0 -8.125 0
-0.625 -7.5 0
0 -7.5 0
-8.75 -3.75 0
-8.125 -3.75 0
-8.75 -3.125 0
-8.125 -3.125 0
-8.125 -3.75 0
-7.5 -3.75 0
-8.125 -3.125 0
-7.5 -3.125 0
-8.75 -3.125 0
-8.125 -3.125 0
-8.75 -2.5 0
-8.125 -2.5 0
-8.125 -3.125 0
-7.5 -3.125 0
-8.125 -2.5 0
-7.5 -2.5 0
-8.75 -2.5 0
-8.125 -2.5 0
-8.75 -1.875 0
-8.125 -1.875 0
-8.125 -2.5 0
-7.5 -2.5 0
-8.125 -1.875 0
-7.5 -1.875 0
-8.75 -1.875 0
-8.125 -1.875 0
-8.75 -1.25 0
-8.125 -1.25 0
-8.125 -1.875 0
-7.5 -1.875 0
-8.125 -1.25 0
-7.5 -1.25 0
-8.75 -1.25 0
-8.125 -1.25 0
-8.75 -0.625 0
-8.125 -0.625 0
-8.125 -1.25 0
-7.5 -1.25 0
-8.125 -0.625 0
-7.5 -0.625 0
-8.75 -0.625 0
-8.125 -0.625 0
-8.75 0 0
-8.125 0 0
-8.125 -0.625 0
-7.5 -0.625 0
-8.125 0 0
-7.5 0 0
3.75 -8.75 0
4.375 -8.75 0
3.75 -8.125 0
4.375 -8.125 0
3.75 -8.125 0
4.375 -8.125 0
3.75 -7.5 0
4.375 -7.5 0
4.375 -8.125 0
5 -8.125 0
4.375 -7.5 0
5 -7.5 0
-8.75 5 0
-8.125 5 0
-8.75 5.625 0
-8.125 5.625 0
-8.75 5.625 0
-8.125 5.625 0
-8.75 6.25 0
-8.125 6.25 0
-8.125 5.625 0
-7.5 5.625 0
-8.125 6.25 0
-7.5 6.25 0
6.25 -8.75 0
6.875 -8.75 0
6.25 -8.125 0
6.875 -8.125 0
6.875 -8.75 0
7.5 -8.75 0
6.875 -8.125 0
7.5 -8.125 0
6.25 -8.125 0
6.875 -8.125 0
6.25 -7.5 0
6.875 -7.5 0
6.875 -8.125 0
7.5 -8.125 0
6.875 -7.5 0
7.5 -7.5 0
6.25 -10 0
6.875 -10 0
6.25 -9.375 0
6.875 -9.375 0
6.875 -10 0
7.5 -10 0
6.875 -9.375 0
7.5 -9.375 0
6.875 -9.375 0
7.5 -9.375 0
6.875 -8.75 0
7.5 -8.75 0
-7.5 3.75 0
-6.875 3.75 0
-7.5 4.375 0
-6.875 4.375 0
-6.875 3.75 0
-6.25 3.75 0
-6.875 4.375 0
-6.25 4.375 0
-7.5 4.375 0
-6.875 4.375 0
-7.5 5 0
-6.875 5 0
-6.875 4.375 0
-6.25 4.375 0
-6.875 5 0
-6.25 5 0
-6.875 5 0
-6.25 5 0
-6.875 5.625 0
-6.25 5.625 0
-7.5 5.625 0
-6.875 5.625 0
-7.5 6.25 0
-6.875 6.25 0
-6.875 5.625 0
-6.25 5.625 0
-6.875 6.25 0
-6.25 6.25 0
7.5 -7.5 0
8.125 -7.5 0
7.5 -6.875 0
8.125 -6.875 0
8.125 -7.5 0
8.75 -7.5 0
8.125 -6.875 0
8.75 -6.875 0
7.5 -6.875 0
8.125 -6.875 0
7.5 -6.25 0
8.125 -6.25 0
8.125 -6.875 0
8.75 -6.875 0
8.125 -6.25 0
8.75 -6.25 0
-10 -10 0
-9.6875 -10 0
-10 -9.6875 0
-9.6875 -9.6875 0
-9.6875 -10 0
-9.375 -10 0
[...]
POINT_DATA 2344
SCALARS V double 1
LOOKUP_TABLE default
0.0163144 -0.00764333 -0.0253289 0.00697639 -0.00764333 0 0.00697639 0 -0.0253289 0.00697639 0 0 0.00697639 0 0 0 0.00104108 0.00946738 0.00943073 0.00755683 0.00946738 0.0252816 0.00755683 0.00547044 0.00943073 0.00755683 0.0163144 0.00433556 0.00755683 0.00547044 0.00433556 -0.00764333 0.0252816 -0.00724407 0.00547044 0.00744946 -0.00724407 0 0.00744946 0 0.00547044 0.00744946 -0.00764333 -0.00382166 0.00744946 0 -0.00382166 0 -0.003015 0.00710153 0.0561915 0.0304919 0.00710153 0.0163144 0.0304919 -0.00450724 0.0561915 0.0304919 0.102914 0.0515203 0.0304919 -0.00450724 0.0515203 -0.0253289 0.00735725 0.00296202 0.000200233 0.00605613 0.00296202 0.00104108 0.00605613 0.00943073 0.000200233 0.00605613 -0.003015 0.00710153 0.00605613 0.00943073 0.00710153 0.0163144 0.0515203 -0.0253289 0.0276473 -0.0126645 0.0465576 0.0276473 0 0 0.0276473 -0.0126645 0 0 0.0241124 0.16167 0.0162313 0.0856881 0.16167 0.138398 0.0856881 0.142191 0.0162313 0.0856881 0.00946738 0.0173745 0.0856881 0.142191 0.0173745 0.0252816 0.00211101 -0.00519435 -0.00559295 -0.00723873 -0.00519435 0.000505091 -0.00723873 -0.000224227 -0.00559295 -0.00723873 -0.000205421 -0.00070648 -0.00723873 -0.000224227 -0.00070648 0.00735725 0.00497928 0.00836554 0.00160737 0.0025306 0.00836554 0.0241124 0.0025306 0.0162313 0.00160737 0.0025306 0.00104108 0.00525423 0.0025306 0.0162313 0.00525423 0.00946738 -0.0121638 -0.00952834 -0.0336164 -0.0150363 -0.00952834 -0.003015 -0.0150363 0.0265883 -0.0336164 -0.0150363 -0.112252 -0.0241522 -0.0150363 0.0265883 -0.0241522 0.0561915 0.000505091 0.00247986 -0.000224227 -0.0019416 0.00247986 -0.000240153 -0.0019416 0.00067552 -0.000224227 -0.0019416 0.00735725 0.00515963 -0.0019416 0.00067552 0.00515963 0.00296202 0.138398 -0.180427 0.142191 -0.0459815 -0.180427 -0.365818 -0.0459815 -0.219039 0.142191 -0.0459815 0.0252816 0.00901874 -0.0459815 -0.219039 0.00901874 -0.00724407 -0.112252 -0.0241522 -0.434864 -0.160995 -0.0241522 0.0561915 -0.160995 0.0795526 -0.160995 0.0795526 -0.321701 0.102914 -0.000205421 -0.00070648 0.00321357 -0.00205266 -0.00070648 0.00735725 -0.00205266 0.00377874 0.00321357 -0.00205266 0.00118537 0.000384553 -0.00205266 0.00377874 0.000384553 0.000200233 3.46171 1.16935 2.84355 1.09945 2.84355 1.09945 2.22539 0.823404 1.09945 -0.520309 0.823404 -0.48144 2.22539 1.60722 0.737377 0.717818 1.60722 0.98906 0.717818 0.370898 0.737377 0.717818 -0.365818 -0.18203 0.717818 0.370898 -0.18203 0 -0.321701 0.102914 -0.300778 0.0747356 -0.520309 -0.300778 -0.48144 -0.260618 -0.300778 0.0747356 -0.260618 0.0465576 -0.000240153 0.00116943 0.00067552 0.00132101 0.00116943 0.00497928 0.00132101 0.00160737 0.00067552 0.00132101 0.00296202 0.00200155 0.00132101 0.00160737 0.00200155 0.00104108 0.00118537 0.000384553 -0.00433384 -0.00410401 0.000384553 0.000200233 -0.00410401 -0.00140739 -0.00433384 -0.00410401 -0.0121638 -0.00952834 -0.00410401 -0.00140739 -0.00952834 -0.003015 2.22539 0.823404 1.60722 0.680366 0.823404 -0.48144 0.680366 -0.241125 1.60722 0.680366 0.98906 0.370898 0.680366 -0.241125 0.370898 0 -0.48144 -0.260618 -0.241125 -0.139893 -0.260618 0.0465576 -0.139893 0.0232788 -0.241125 -0.139893 0 0 -0.139893 0.0232788 0 0 -0.18203 0 -0.117193 0 -0.219039 -0.117193 -0.00724407 -0.00362204 -0.117193 0 -0.00362204 0 0.102914 0.077217 0.0747356 0.0571597 0.077217 0.0515203 0.0571597 0.0395838 0.0747356 0.0571597 0.0465576 0.0371025 0.0571597 0.0395838 0.0371025 0.0276473 0.0169786 0.00654296 0.012389 0.0133631 0.00654296 0.0121444 0.0133631 0.0187462 0.012389 0.0133631 0.00211101 -0.00154167 0.0133631 0.0187462 -0.00154167 -0.00519435 0.0349532 0.0443722 0.00428314 0.00667831 0.0443722 0.066976 0.00667831 -0.00502874 0.00428314 0.00667831 0.00497928 0.00667241 0.00667831 -0.00502874 0.00667241 0.00836554 0.066976 0.0831329 -0.00502874 -0.0212312 0.0831329 0.11138 -0.0212312 -0.00987134 -0.00502874 -0.0212312 0.00836554 0.016239 -0.0212312 -0.00987134 0.016239 0.0241124 0.0121444 0.0123252 0.0187462 0.0189614 0.0123252 0.00978198 0.0189614 0.0182367 0.0187462 0.0189614 -0.00519435 -0.00234463 0.0189614 0.0182367 -0.00234463 0.000505091 0.036112 -0.00284384 0.0437574 -0.00909933 -0.00284384 -0.0121638 -0.00909933 -0.0228901 0.0437574 -0.00909933 0.0637619 -0.0339287 -0.00909933 -0.0228901 -0.0339287 -0.0336164 0.0637619 -0.0339287 0.0614336 -0.0675347 -0.0339287 -0.0336164 -0.0675347 -0.0729341 0.0614336 -0.0675347 -0.0359204 -0.180257 -0.0675347 -0.0729341 -0.180257 -0.112252 0.0169817 0.0123692 0.00655789 0.0132775 0.0123692 0.00211101 0.0132775 -0.00174097 0.00655789 0.0132775 0.0121743 0.0185714 0.0132775 -0.00174097 0.0185714 -0.00559295 0.0121743 0.0185714 0.0123728 0.0186887 0.0185714 -0.00559295 0.0186887 -0.00289919 0.0123728 0.0186887 0.00982426 0.0179809 0.0186887 -0.00289919 0.0179809 -0.000205421 0.00978198 0.0260615 0.0182367 0.0140711 0.0260615 0.0442677 0.0140711 0.00404047 0.0182367 0.0140711 0.000505091 0.00149248 0.0140711 0.00404047 0.00149248 0.00247986 0.0378492 0.0169786 0.0187895 0.012389 0.0378489 0.0187895 0.0169817 0.0123692 0.0187895 0.012389 0.0123692 0.00211101 0.0442677 0.0431682 0.00404047 0.000576736 0.0431682 0.0406488 0.000576736 0.000157736 0.00404047 0.000576736 0.00247986 0.00111986 0.000576736 0.000157736 0.00111986 -0.000240153 -0.180257 -0.112252 -0.429796 -0.273558 -0.429796 -0.273558 -0.591493 -0.434864 0.00982426 0.0179809 0.0260522 0.0140169 0.0179809 -0.000205421 0.0140169 0.00150408 0.0260522 0.0140169 0.0441995 0.00429956 0.0140169 0.00150408 0.00429956 0.00321357 4.07987 1.50159 3.77079 1.97222 3.77079 1.97222 3.46171 2.31268 1.97222 0.449649 2.31268 1.16935 -0.241527 -0.591493 0.449649 -0.226126 -0.591493 -0.434864 -0.226126 -0.497188 0.449649 -0.226126 1.16935 0.221449 -0.226126 -0.497188 0.221449 -0.559512 0.11138 0.0888641 -0.00987134 0.0298637 0.0888641 0.00917627 0.0298637 0.0532827 -0.00987134 0.0298637 0.0241124 0.0928912 0.0298637 0.0532827 0.0928912 0.16167 -0.145289 -0.293789 0.138398 -0.0210145 -0.293789 -0.356861 -0.0210145 -0.180427 3.46171 3.15263 1.21904 1.23637 3.15263 2.84355 1.23637 1.19707 1.23637 1.19707 -0.18654 -0.184655 0.0406488 0.0391349 0.000157736 0.000533533 0.0391349 0.0378645 0.000533533 0.00126177 0.000157736 0.000533533 -0.000240153 0.000464637 0.000533533 0.00126177 0.000464637 0.00116943 3.77079 3.46171 0.977736 1.21904 0.977736 1.21904 -0.0511026 -0.115145 0.0378645 0.0358011 0.00126177 0.00188894 0.0358011 0.0349532 0.00188894 0.00428314 0.00126177 0.00188894 0.00116943 0.00307435 0.00188894 0.00428314 0.00307435 0.00497928 0.0441995 0.00429956 0.0430227 0.00125929 0.00429956 0.00321357 0.00125929 0.00219947 0.0430227 0.00125929 0.0405242 0.000716542 0.00125929 0.00219947 0.000716542 0.00118537 0.0405242 0.000716542 0.0392674 -0.00026948 0.000716542 0.00118537 -0.00026948 -0.00157424 0.0392674 -0.00026948 0.0383791 -0.00148779 -0.00026948 -0.00157424 -0.00148779 -0.00433384 0.0383791 -0.00148779 0.0366591 -0.00227463 -0.00148779 -0.00433384 -0.00227463 -0.00824884 0.0366591 -0.00227463 0.036112 -0.00284384 -0.00227463 -0.00824884 -0.00284384 -0.0121638 0.00917627 -0.0511026 0.0532827 -0.0298752 0.0532827 -0.0298752 0.16167 0.150034 -0.0298752 -0.145289 0.150034 0.138398 1.16935 0.221449 1.19445 0.267164 1.19445 0.267164 1.09945 0.23543 0.267164 -0.516334 0.23543 -0.520309 -0.184655 0.259536 -0.356861 -0.139785 0.259536 0.737377 -0.139785 0.159185 -0.356861 -0.139785 -0.180427 -0.273123 -0.139785 0.159185 -0.273123 -0.365818 2.84355 2.53447 1.19707 1.3332 2.53447 2.22539 1.3332 1.48138 1.3332 1.48138 0.259536 0.737377 -0.434864 -0.29793 -0.497188 -0.369268 -0.29793 -0.160995 -0.369268 -0.241348 -0.497188 -0.369268 -0.559512 -0.440607 -0.369268 -0.241348 -0.440607 -0.321701 -0.440607 -0.321701 -0.502977 -0.31124 -0.516334 -0.502977 -0.520309 -0.464681 -0.502977 -0.31124 -0.464681 -0.300778 -0.365818 -0.273924 -0.292428 -0.22102 -0.273924 -0.18203 -0.22102 -0.149612 -0.292428 -0.22102 -0.219039 -0.168116 -0.22102 -0.149612 -0.168116 -0.117193 10.8797 10.7251 10.7251 8.04997 10.7251 10.5706 8.04997 6.21617 10.7251 8.04997 10.5706 6.21617 8.04997 6.21617 6.21617 3.282 10.5706 10.416 6.21617 5.4018 10.416 10.2615 5.4018 5.17058 6.21617 5.4018 3.282 2.03962 5.4018 5.17058 2.03962 1.76289 10.5706 6.21617 10.416 5.4018 6.21617 3.282 5.4018 2.03962 10.416 5.4018 10.2615 5.17058 5.4018 2.03962 5.17058 1.76289 3.282 2.03962 2.03962 0.634733 2.03962 1.76289 0.634733 0.343032 2.03962 0.634733 1.76289 0.343032 0.634733 0.343032 0.343032 0.0351505 10.2615 10.107 5.17058 5.09692 10.107 9.95242 5.09692 5.02328 5.17058 5.09692 1.76289 1.74636 5.09692 5.02328 1.74636 1.72724 9.95242 9.79788 5.02328 4.94077 9.79788 9.64334 4.94077 4.85977 5.02328 4.94077 1.72724 1.69155 4.94077 4.85977 1.69155 1.65613 1.65613 1.62461 0.314985 0.301042 1.62461 1.59655 0.301042 0.292977 0.314985 0.301042 0.0169786 0.0117608 0.301042 0.292977 0.0117608 0.00654296 1.59655 1.57041 0.292977 0.28866 1.57041 1.54452 0.28866 0.285418 0.292977 0.28866 0.00654296 0.00934369 0.28866 0.285418 0.00934369 0.0121444 10.2615 5.17058 10.107 5.09692 5.17058 1.76289 5.09692 1.74636 10.107 5.09692 9.95242 5.02328 5.09692 1.74636 5.02328 1.72724 1.54452 1.51827 0.285418 0.281234 1.51827 1.49168 0.281234 0.276016 0.285418 0.281234 0.0121444 0.0122348 0.281234 0.276016 0.0122348 0.0123252 9.95242 5.02328 9.79788 4.94077 5.02328 1.72724 4.94077 1.69156 9.79788 4.94077 9.64334 4.85977 4.94077 1.69156 4.85977 1.65613 1.49168 1.46487 0.276016 0.270092 1.46487 1.43925 0.270092 0.266652 0.276016 0.270092 0.0123252 0.0110536 0.270092 0.266652 0.0110536 0.00978198 9.64334 9.4888 4.85977 4.78138 9.4888 9.33426 4.78138 4.70388 4.85977 4.78138 1.65613 1.62461 4.78138 4.70388 1.62461 1.59655 9.33426 9.17972 4.70388 4.62625 9.17972 9.02518 4.62625 4.54841 4.70388 4.62625 1.59655 1.57041 4.62625 4.54841 1.57041 1.54452 1.65613 0.314991 1.62461 0.301054 0.314991 0.0169817 0.301054 0.0117698 1.62461 0.301054 1.59656 0.292999 0.301054 0.0117698 0.292999 0.00655789 1.59656 0.292999 1.57043 0.288693 0.292999 0.00655789 0.288693 0.00936612 1.57043 0.288693 1.54454 0.285463 0.288693 0.00936612 0.285463 0.0121743 9.02518 8.87063 4.54841 4.47053 8.87063 8.71609 4.47053 4.39264 4.54841 4.47053 1.54452 1.51827 4.47053 4.39264 1.51827 1.49168 8.71609 8.56155 4.39264 4.31471 8.56155 8.40701 4.31471 4.23684 4.39264 4.31471 1.49168 1.46487 4.31471 4.23684 1.46487 1.43925 1.54454 0.285463 1.5183 0.28129 0.285463 0.0121743 0.28129 0.0122736 1.5183 0.28129 1.49172 0.276082 0.28129 0.0122736 0.276082 0.0123728 1.49172 0.276082 1.4649 0.270162 0.276082 0.0123728 0.270162 0.0110985 1.4649 0.270162 1.43928 0.266713 0.270162 0.0110985 0.266713 0.00982426 9.64334 4.85977 9.4888 4.78138 4.85977 1.65613 4.78138 1.62461 9.4888 4.78138 9.33426 4.70388 4.78138 1.62461 4.70388 1.59656 1.43925 1.4186 0.266652 0.27103 1.4186 1.40346 0.27103 0.283765 0.266652 0.27103 0.00978198 0.0179217 0.27103 0.283765 0.0179217 0.0260615 9.33426 4.70388 9.17972 4.62625 4.70388 1.59656 4.62625 1.57043 9.17972 4.62625 9.02518 4.54842 4.62625 1.57043 4.54842 1.54454 1.76289 1.74636 0.343032 0.345138 1.74636 1.72724 0.345138 0.349959 0.343032 0.345138 0.0351505 0.0364998 0.345138 0.349959 0.0364998 0.0378492 9.02518 4.54842 8.87063 4.47054 4.54842 1.54454 4.47054 1.5183 8.87063 4.47054 8.71609 4.39264 4.47054 1.5183 4.39264 1.49172 1.72724 1.69155 0.349959 0.333594 1.69155 1.65613 0.333594 0.314985 0.349959 0.333594 0.0378492 0.0274139 0.333594 0.314985 0.0274139 0.0169786 8.71609 4.39264 8.56155 4.31472 4.39264 1.49172 4.31472 1.4649 8.56155 4.31472 8.40701 4.23685 4.31472 1.4649 4.23685 1.43928 1.76289 0.343032 1.74636 0.345138 0.343032 0.0351505 0.345138 0.0364997 1.74636 0.345138 1.72724 0.34996 0.345138 0.0364997 0.34996 0.0378489 8.40701 8.25247 4.23684 4.15954 8.25247 8.09793 4.15954 4.08329 4.23684 4.15954 1.43925 1.4186 4.15954 4.08329 1.4186 1.40346 8.09793 7.94339 4.08329 4.00761 7.94339 7.78885 4.00761 3.93135 4.08329 4.00761 1.40346 1.38791 4.00761 3.93135 1.38791 1.36704 1.72724 0.34996 1.69156 0.333596 0.34996 0.0378489 0.333596 0.0274153 1.69156 0.333596 1.65613 0.314991 0.333596 0.0274153 0.314991 0.0169817 1.40346 1.38791 0.283765 0.295834 1.38791 1.36704 0.295834 0.299657 0.283765 0.295834 0.0260615 0.0351646 0.295834 0.299657 0.0351646 0.0442677 7.78885 7.63431 3.93135 3.85388 7.63431 7.47977 3.85388 3.77566 3.93135 3.85388 1.36704 1.34142 3.85388 3.77566 1.34142 1.31391 7.47977 7.32523 3.77566 3.69751 7.32523 7.17069 3.69751 3.61955 3.77566 3.69751 1.31391 1.28645 3.69751 3.61955 1.28645 1.25937 1.36704 1.34142 0.299657 0.296318 1.34142 1.31391 0.296318 0.289857 0.299657 0.296318 0.0442677 0.0437179 0.296318 0.289857 0.0437179 0.0431682 1.31391 1.28645 0.289857 0.283514 1.28645 1.25937 0.283514 0.277532 0.289857 0.283514 0.0431682 0.0419085 0.283514 0.277532 0.0419085 0.0406488 7.17069 7.01615 3.61955 3.54157 7.01615 6.86161 3.54157 3.46351 3.61955 3.54157 1.25937 1.23229 3.54157 3.46351 1.23229 1.20509 6.86161 6.70707 3.46351 3.3855 6.70707 6.55252 3.3855 3.30764 3.46351 3.3855 1.20509 1.17795 3.3855 3.30764 1.17795 1.15103 1.43928 0.266713 1.41862 0.271065 0.266713 0.00982426 0.271065 0.0179382 1.41862 0.271065 1.40346 0.283762 0.271065 0.0179382 0.283762 0.0260522 1.25937 1.23229 0.277532 0.271603 1.23229 1.20509 0.271603 0.265643 0.277532 0.271603 0.0406488 0.0398918 0.271603 0.265643 0.0398918 0.0391349 6.55252 6.39798 3.30764 3.22945 6.39798 6.24344 3.22945 3.14952 3.30764 3.22945 1.15103 1.12359 3.22945 3.14952 1.12359 1.0941 6.24344 6.0889 3.14952 3.07421 6.0889 5.93436 3.07421 3.03356 3.14952 3.07421 1.0941 1.06972 3.07421 3.03356 1.06972 1.07994 1.20509 1.17795 0.265643 0.259711 1.17795 1.15103 0.259711 0.253932 0.265643 0.259711 0.0391349 0.0384997 0.259711 0.253932 0.0384997 0.0378645 1.15103 1.12359 0.253932 0.247879 1.12359 1.0941 0.247879 0.24048 0.253932 0.247879 0.0378645 0.0368328 0.247879 0.24048 0.0368328 0.0358011 8.40701 4.23685 8.25247 4.15954 4.23685 1.43928 4.15954 1.41862 8.25247 4.15954 8.09793 4.08329 4.15954 1.41862 4.08329 1.40346 1.0941 1.06972 0.24048 0.235257 1.06972 1.07994 0.235257 0.246013 0.24048 0.235257 0.0358011 0.0353771 0.235257 0.246013 0.0353771 0.0349532 8.09793 4.08329 7.94339 4.0076 4.08329 1.40346 4.0076 1.38789 7.94339 4.0076 7.78885 3.93134 4.0076 1.38789 3.93134 1.36699 1.40346 0.283762 1.38789 0.29579 0.283762 0.0260522 0.29579 0.0351258 1.38789 0.29579 1.36699 0.29957 0.29579 0.0351258 0.29957 0.0441995 7.78885 3.93134 7.63431 3.85387 3.93134 1.36699 3.85387 1.34135 7.63431 3.85387 7.47977 3.77565 3.85387 1.34135 3.77565 1.31383 1.36699 0.29957 1.34135 0.296185 0.29957 0.0441995 0.296185 0.0436111 1.34135 0.296185 1.31383 0.289683 0.296185 0.0436111 0.289683 0.0430227 7.47977 3.77565 7.32523 3.69749 3.77565 1.31383 3.69749 1.28636 7.32523 3.69749 7.17069 3.61954 3.69749 1.28636 3.61954 1.2593 1.31383 0.289683 1.28636 0.283323 0.289683 0.0430227 0.283323 0.0417735 1.28636 0.283323 1.2593 0.277389 0.283323 0.0417735 0.277389 0.0405242 7.17069 3.61954 7.01615 3.54157 3.61954 1.2593 3.54157 1.23228 7.01615 3.54157 6.86161 3.46352 3.54157 1.23228 3.46352 1.20518 1.2593 0.277389 1.23228 0.271597 0.277389 0.0405242 0.271597 0.0398958 1.23228 0.271597 1.20518 0.26584 0.271597 0.0398958 0.26584 0.0392674 6.86161 3.46352 6.70707 3.38552 3.46352 1.20518 3.38552 1.17813 6.70707 3.38552 6.55252 3.30768 3.38552 1.17813 3.30768 1.15133 1.20518 0.26584 1.17813 0.260136 0.26584 0.0392674 0.260136 0.0388233 1.17813 0.260136 1.15133 0.254594 0.260136 0.0388233 0.254594 0.0383791 6.55252 3.30768 6.39798 3.2295 3.30768 1.15133 3.2295 1.124 6.39798 3.2295 6.24344 3.14959 3.2295 1.124 3.14959 1.09462 1.15133 0.254594 1.124 0.248778 0.254594 0.0383791 0.248778 0.0375191 1.124 0.248778 1.09462 0.241615 0.248778 0.0375191 0.241615 0.0366591 6.24344 3.14959 6.0889 3.0743 3.14959 1.09462 3.0743 1.07037 6.0889 3.0743 5.93436 3.03369 3.0743 1.07037 3.03369 1.08073 1.09462 0.241615 1.07037 0.236639 0.241615 0.0366591 0.236639 0.0363855 1.07037 0.236639 1.08073 0.247586 0.236639 0.0363855 0.247586 0.036112 5.93436 5.77982 3.03356 3.05695 5.77982 5.62528 3.05695 3.11042 3.03356 3.05695 1.07994 1.15154 3.05695 3.11042 1.15154 1.25169 1.07994 1.15154 0.246013 0.282219 1.15154 1.25169 0.282219 0.332772 0.246013 0.282219 0.0349532 0.0396627 0.282219 0.332772 0.0396627 0.0443722 5.3162 5.16166 3.10213 3.0606 5.16166 5.00712 3.0606 3.00527 3.10213 3.0606 1.35619 1.38154 3.0606 3.00527 1.38154 1.38585 5.62528 5.47074 3.11042 3.12755 5.47074 5.3162 3.12755 3.10213 3.11042 3.12755 1.25169 1.3207 3.12755 3.10213 1.3207 1.35619 1.25169 1.3207 0.332772 0.378643 1.3207 1.35619 0.378643 0.420942 0.332772 0.378643 0.0443722 0.0556741 0.378643 0.420942 0.0556741 0.066976 1.38585 1.36149 0.47056 0.474125 1.36149 1.32259 0.474125 0.490695 0.47056 0.474125 0.0831329 0.0972566 0.474125 0.490695 0.0972566 0.11138 1.08073 0.247586 1.1525 0.283937 0.247586 0.036112 0.283937 0.0399347 1.1525 0.283937 1.25281 0.334329 0.283937 0.0399347 0.334329 0.0437574 5.00712 4.85258 3.00527 2.93281 4.85258 4.69804 2.93281 2.84725 3.00527 2.93281 1.38585 1.36149 2.93281 2.84725 1.36149 1.32259 1.35619 1.38154 0.420942 0.457854 1.38154 1.38585 0.457854 0.47056 0.420942 0.457854 0.066976 0.0750544 0.457854 0.47056 0.0750544 0.0831329 4.38896 4.23441 2.58768 2.41679 4.23441 4.07987 2.41679 2.28799 2.58768 2.41679 1.13943 0.999569 2.41679 2.28799 0.999569 0.911596 5.93436 3.03369 5.77982 3.0572 3.03369 1.08073 3.0572 1.1525 5.77982 3.0572 5.62528 3.11087 3.0572 1.1525 3.11087 1.25281 0.0351505 0.0364998 0.0364997 0.0324095 0.0364998 0.0378492 0.0324095 0.0283193 0.0364997 0.0324095 0.0378489 0.0283192 0.0324095 0.0283193 0.0283192 0.0187895 1.13943 0.999569 0.392479 0.287553 0.999569 0.911596 0.287553 0.218985 0.392479 0.287553 0.0888641 0.0490202 0.287553 0.218985 0.0490202 0.00917627 5.62528 3.11087 5.47074 3.12837 3.11087 1.25281 3.12837 1.32207 5.47074 3.12837 5.3162 3.10323 3.12837 1.32207 3.10323 1.35764 1.25281 0.334329 1.32207 0.379659 0.334329 0.0437574 0.379659 0.0537597 1.32207 0.379659 1.35764 0.420676 0.379659 0.0537597 0.420676 0.0637619 5.3162 3.10323 5.16166 3.06108 3.10323 1.35764 3.06108 1.3812 5.16166 3.06108 5.00712 3.00138 3.06108 1.3812 3.00138 1.37647 1.35764 0.420676 1.3812 0.455216 0.420676 0.0637619 0.455216 0.0625978 1.3812 0.455216 1.37647 0.453177 0.455216 0.0625978 0.453177 0.0614336 1.37647 0.453177 1.32843 0.420325 0.453177 0.0614336 0.420325 0.0127566 1.32843 0.420325 1.26089 0.385134 0.420325 0.0127566 0.385134 -0.0359204 5.00712 3.00138 4.85258 2.91588 3.00138 1.37647 2.91588 1.32843 4.85258 2.91588 4.69804 2.82312 2.91588 1.32843 2.82312 1.26089 -0.0359204 -0.108089 -0.164192 -0.234609 -0.108089 -0.180257 -0.234609 -0.305026 -0.164192 -0.234609 -0.292463 -0.361129 -0.234609 -0.305026 -0.361129 -0.429796 4.07987 3.92533 2.28799 2.23776 3.92533 3.77079 2.23776 2.26889 2.28799 2.23776 0.911596 0.89968 2.23776 2.26889 0.89968 0.977736 -0.292463 -0.361129 -0.266995 -0.38882 -0.361129 -0.429796 -0.38882 -0.510645 -0.266995 -0.38882 -0.241527 -0.41651 -0.38882 -0.510645 -0.41651 -0.591493 0.911596 0.89968 0.218985 0.219742 0.89968 0.977736 0.219742 0.317914 0.218985 0.219742 0.00917627 -0.0209632 0.219742 0.317914 -0.0209632 -0.0511026 4.69804 4.5435 2.84725 2.73674 4.5435 4.38896 2.73674 2.58768 2.84725 2.73674 1.32259 1.25057 2.73674 2.58768 1.25057 1.13943 1.32259 1.25057 0.490695 0.472295 1.25057 1.13943 0.472295 0.392479 0.490695 0.472295 0.11138 0.100122 0.472295 0.392479 0.100122 0.0888641 1.50159 0.630031 1.7369 0.920482 0.630031 -0.241527 0.920482 0.104061 1.7369 0.920482 1.97222 1.21093 0.920482 0.104061 1.21093 0.449649 -0.115145 -0.150843 -0.130217 -0.185191 -0.150843 -0.18654 -0.185191 -0.240165 -0.130217 -0.185191 -0.145289 -0.219539 -0.185191 -0.240165 -0.219539 -0.293789 -0.18654 -0.185597 -0.240165 -0.255461 -0.185597 -0.184655 -0.255461 -0.270758 -0.240165 -0.255461 -0.293789 -0.325325 -0.255461 -0.270758 -0.325325 -0.356861 4.69804 2.82312 4.5435