# vtk DataFile Version 3.0
#This file was generated by the deal.II library on 2015/4/22 at 22:35:34
ASCII
DATASET UNSTRUCTURED_GRID

POINTS 4144 double
0 0 0
0.125 0 0
0 0.125 0
0.125 0.125 0
0.125 0 0
0.25 0 0
0.125 0.125 0
0.25 0.125 0
0 0.125 0
0.125 0.125 0
0 0.25 0
0.125 0.25 0
0.25 0.25 0
0.375 0.25 0
0.25 0.375 0
0.375 0.375 0
0.75 0 0
0.8125 0 0
0.75 0.0625 0
0.8125 0.0625 0
0.75 0.0625 0
0.8125 0.0625 0
0.75 0.125 0
0.8125 0.125 0
0.75 0.25 0
0.8125 0.25 0
0.75 0.3125 0
0.8125 0.3125 0
0.8125 0.25 0
0.875 0.25 0
0.8125 0.3125 0
0.875 0.3125 0
0.75 0.3125 0
0.8125 0.3125 0
0.75 0.375 0
0.8125 0.375 0
0.8125 0.3125 0
0.875 0.3125 0
0.8125 0.375 0
0.875 0.375 0
0.75 0.375 0
0.8125 0.375 0
0.75 0.4375 0
0.8125 0.4375 0
0.8125 0.375 0
0.875 0.375 0
0.8125 0.4375 0
0.875 0.4375 0
0.75 0.4375 0
0.8125 0.4375 0
0.75 0.5 0
0.8125 0.5 0
0.8125 0.4375 0
0.875 0.4375 0
0.8125 0.5 0
0.875 0.5 0
0.25 0.75 0
0.3125 0.75 0
0.25 0.8125 0
0.3125 0.8125 0
0.3125 0.75 0
0.375 0.75 0
0.3125 0.8125 0
0.375 0.8125 0
0.25 0.8125 0
0.3125 0.8125 0
0.25 0.875 0
0.3125 0.875 0
0.3125 0.8125 0
0.375 0.8125 0
0.3125 0.875 0
0.375 0.875 0
0.375 0.75 0
0.4375 0.75 0
0.375 0.8125 0
0.4375 0.8125 0
0.4375 0.75 0
0.5 0.75 0
0.4375 0.8125 0
0.5 0.8125 0
0.375 0.8125 0
0.4375 0.8125 0
0.375 0.875 0
0.4375 0.875 0
0.4375 0.8125 0
0.5 0.8125 0
0.4375 0.875 0
0.5 0.875 0
0.75 0.125 0
0.8125 0.125 0
0.75 0.1875 0
0.8125 0.1875 0
0.8125 0.125 0
0.875 0.125 0
0.8125 0.1875 0
0.875 0.1875 0
0.75 0.1875 0
0.8125 0.1875 0
0.75 0.25 0
0.8125 0.25 0
0.8125 0.1875 0
0.875 0.1875 0
0.8125 0.25 0
0.875 0.25 0
0.75 0.5 0
0.8125 0.5 0
0.75 0.5625 0
0.8125 0.5625 0
0.8125 0.5 0
0.875 0.5 0
0.8125 0.5625 0
0.875 0.5625 0
0.75 0.5625 0
0.8125 0.5625 0
0.75 0.625 0
0.8125 0.625 0
0.8125 0.5625 0
0.875 0.5625 0
0.8125 0.625 0
0.875 0.625 0
0.875 0.5 0
0.9375 0.5 0
0.875 0.5625 0
0.9375 0.5625 0
0.75 0.625 0
0.8125 0.625 0
0.75 0.6875 0
0.8125 0.6875 0
0.8125 0.625 0
0.875 0.625 0
0.8125 0.6875 0
0.875 0.6875 0
0.75 0.6875 0
0.8125 0.6875 0
0.75 0.75 0
0.8125 0.75 0
0.5 0.75 0
0.5625 0.75 0
0.5 0.8125 0
0.5625 0.8125 0
0.5 0.8125 0
0.5625 0.8125 0
0.5 0.875 0
0.5625 0.875 0
0.5625 0.8125 0
0.625 0.8125 0
0.5625 0.875 0
0.625 0.875 0
0.625 0.75 0
0.6875 0.75 0
0.625 0.8125 0
0.6875 0.8125 0
0.6875 0.75 0
0.75 0.75 0
0.6875 0.8125 0
0.75 0.8125 0
0.5 0.875 0
0.5625 0.875 0
0.5 0.9375 0
0.5625 0.9375 0
0 0.75 0
0.0625 0.75 0
0 0.8125 0
0.0625 0.8125 0
0.0625 0.75 0
0.125 0.75 0
0.0625 0.8125 0
0.125 0.8125 0
0.125 0.75 0
0.1875 0.75 0
0.125 0.8125 0
0.1875 0.8125 0
0.1875 0.75 0
0.25 0.75 0
0.1875 0.8125 0
0.25 0.8125 0
0.125 0.8125 0
0.1875 0.8125 0
0.125 0.875 0
0.1875 0.875 0
0.1875 0.8125 0
0.25 0.8125 0
0.1875 0.875 0
0.25 0.875 0
0.75 0.75 0
0.8125 0.75 0
0.75 0.8125 0
0.8125 0.8125 0
0.5 0.125 0
0.5625 0.125 0
0.5 0.1875 0
0.5625 0.1875 0
0.5625 0.125 0
0.625 0.125 0
0.5625 0.1875 0
0.625 0.1875 0
0.625 0.125 0
0.6875 0.125 0
0.625 0.1875 0
0.6875 0.1875 0
0.6875 0.125 0
0.75 0.125 0
0.6875 0.1875 0
0.75 0.1875 0
0.625 0.1875 0
0.6875 0.1875 0
0.625 0.25 0
0.6875 0.25 0
0.6875 0.1875 0
0.75 0.1875 0
0.6875 0.25 0
0.75 0.25 0
0.125 0.5 0
0.1875 0.5 0
0.125 0.5625 0
0.1875 0.5625 0
0.125 0.5625 0
0.1875 0.5625 0
0.125 0.625 0
0.1875 0.625 0
0.125 0.625 0
0.1875 0.625 0
0.125 0.6875 0
0.1875 0.6875 0
0.1875 0.625 0
0.25 0.625 0
0.1875 0.6875 0
0.25 0.6875 0
0.125 0.6875 0
0.1875 0.6875 0
0.125 0.75 0
0.1875 0.75 0
0.1875 0.6875 0
0.25 0.6875 0
0.1875 0.75 0
0.25 0.75 0
0.5 0 0
0.5625 0 0
0.5 0.0625 0
0.5625 0.0625 0
0.5625 0 0
0.625 0 0
0.5625 0.0625 0
0.625 0.0625 0
0.5 0.0625 0
0.5625 0.0625 0
0.5 0.125 0
0.5625 0.125 0
0.5625 0.0625 0
0.625 0.0625 0
0.5625 0.125 0
0.625 0.125 0
0.625 0 0
0.6875 0 0
0.625 0.0625 0
0.6875 0.0625 0
0.6875 0 0
0.75 0 0
0.6875 0.0625 0
0.75 0.0625 0
0.625 0.0625 0
0.6875 0.0625 0
0.625 0.125 0
0.6875 0.125 0
0.6875 0.0625 0
0.75 0.0625 0
0.6875 0.125 0
0.75 0.125 0
0 0.5 0
0.0625 0.5 0
0 0.5625 0
0.0625 0.5625 0
0.0625 0.5 0
0.125 0.5 0
0.0625 0.5625 0
0.125 0.5625 0
0 0.5625 0
0.0625 0.5625 0
0 0.625 0
0.0625 0.625 0
0.0625 0.5625 0
0.125 0.5625 0
0.0625 0.625 0
0.125 0.625 0
0 0.625 0
0.0625 0.625 0
0 0.6875 0
0.0625 0.6875 0
0.0625 0.625 0
0.125 0.625 0
0.0625 0.6875 0
0.125 0.6875 0
0 0.6875 0
0.0625 0.6875 0
0 0.75 0
0.0625 0.75 0
0.0625 0.6875 0
0.125 0.6875 0
0.0625 0.75 0
0.125 0.75 0
0.625 0.25 0
0.6875 0.25 0
0.625 0.3125 0
0.6875 0.3125 0
0.6875 0.25 0
0.75 0.25 0
0.6875 0.3125 0
0.75 0.3125 0
0.625 0.3125 0
0.6875 0.3125 0
0.625 0.375 0
0.6875 0.375 0
0.6875 0.3125 0
0.75 0.3125 0
0.6875 0.375 0
0.75 0.375 0
0.6875 0.4375 0
0.75 0.4375 0
0.6875 0.5 0
0.75 0.5 0
0.25 0.625 0
0.3125 0.625 0
0.25 0.6875 0
0.3125 0.6875 0
0.3125 0.625 0
0.375 0.625 0
0.3125 0.6875 0
0.375 0.6875 0
0.25 0.6875 0
0.3125 0.6875 0
0.25 0.75 0
0.3125 0.75 0
0.3125 0.6875 0
0.375 0.6875 0
0.3125 0.75 0
0.375 0.75 0
0.4375 0.6875 0
0.5 0.6875 0
0.4375 0.75 0
0.5 0.75 0
0.6875 0.5 0
0.75 0.5 0
0.6875 0.5625 0
0.75 0.5625 0
0.5 0.6875 0
0.5625 0.6875 0
0.5 0.75 0
0.5625 0.75 0
0.6875 0.625 0
0.75 0.625 0
0.6875 0.6875 0
0.75 0.6875 0
0.625 0.6875 0
0.6875 0.6875 0
0.625 0.75 0
0.6875 0.75 0
0.6875 0.6875 0
0.75 0.6875 0
0.6875 0.75 0
0.75 0.75 0
0.25 0 0
0.3125 0 0
0.25 0.0625 0
0.3125 0.0625 0
0.25 0.0625 0
0.3125 0.0625 0
0.25 0.125 0
0.3125 0.125 0
0 0.25 0
0.0625 0.25 0
0 0.3125 0
0.0625 0.3125 0
0.0625 0.25 0
0.125 0.25 0
0.0625 0.3125 0
0.125 0.3125 0
0.5 0.25 0
0.5625 0.25 0
0.5 0.3125 0
0.5625 0.3125 0
0.5625 0.25 0
0.625 0.25 0
0.5625 0.3125 0
0.625 0.3125 0
0.5 0.3125 0
0.5625 0.3125 0
0.5 0.375 0
0.5625 0.375 0
0.5625 0.3125 0
0.625 0.3125 0
0.5625 0.375 0
0.625 0.375 0
0.5 0.375 0
0.5625 0.375 0
0.5 0.4375 0
0.5625 0.4375 0
0.5625 0.375 0
0.625 0.375 0
0.5625 0.4375 0
0.625 0.4375 0
0.5 0.4375 0
0.5625 0.4375 0
0.5 0.5 0
0.5625 0.5 0
0.5625 0.4375 0
0.625 0.4375 0
0.5625 0.5 0
0.625 0.5 0
0.25 0.5 0
0.3125 0.5 0
0.25 0.5625 0
0.3125 0.5625 0
0.3125 0.5 0
0.375 0.5 0
0.3125 0.5625 0
0.375 0.5625 0
0.25 0.5625 0
0.3125 0.5625 0
0.25 0.625 0
0.3125 0.625 0
0.3125 0.5625 0
0.375 0.5625 0
0.3125 0.625 0
0.375 0.625 0
0.375 0.5 0
0.4375 0.5 0
0.375 0.5625 0
0.4375 0.5625 0
0.4375 0.5 0
0.5 0.5 0
0.4375 0.5625 0
0.5 0.5625 0
0.375 0.5625 0
0.4375 0.5625 0
0.375 0.625 0
0.4375 0.625 0
0.4375 0.5625 0
0.5 0.5625 0
0.4375 0.625 0
0.5 0.625 0
0.5 0.5 0
0.5625 0.5 0
0.5 0.5625 0
0.5625 0.5625 0
0.5625 0.5 0
0.625 0.5 0
0.5625 0.5625 0
0.625 0.5625 0
0.5 0.5625 0
0.5625 0.5625 0
0.5 0.625 0
0.5625 0.625 0
0.4375 0.125 0
0.5 0.125 0
0.4375 0.1875 0
0.5 0.1875 0
0.375 0.1875 0
0.4375 0.1875 0
0.375 0.25 0
0.4375 0.25 0
0.4375 0.1875 0
0.5 0.1875 0
0.4375 0.25 0
0.5 0.25 0
0.375 0.25 0
0.4375 0.25 0
0.375 0.3125 0
0.4375 0.3125 0
0.4375 0.25 0
0.5 0.25 0
0.4375 0.3125 0
0.5 0.3125 0
0.375 0.3125 0
0.4375 0.3125 0
0.375 0.375 0
0.4375 0.375 0
0.4375 0.3125 0
0.5 0.3125 0
0.4375 0.375 0
0.5 0.375 0
0.25 0.375 0
0.3125 0.375 0
0.25 0.4375 0
0.3125 0.4375 0
0.3125 0.375 0
0.375 0.375 0
0.3125 0.4375 0
0.375 0.4375 0
0.25 0.4375 0
0.3125 0.4375 0
0.25 0.5 0
0.3125 0.5 0
0.3125 0.4375 0
0.375 0.4375 0
0.3125 0.5 0
0.375 0.5 0
0.25 0.125 0
0.3125 0.125 0
0.25 0.1875 0
0.3125 0.1875 0
0.3125 0.125 0
0.375 0.125 0
0.3125 0.1875 0
0.375 0.1875 0
0.25 0.1875 0
0.3125 0.1875 0
0.25 0.25 0
0.3125 0.25 0
0.3125 0.1875 0
0.375 0.1875 0
0.3125 0.25 0
0.375 0.25 0
0.1875 0.375 0
0.25 0.375 0
0.1875 0.4375 0
0.25 0.4375 0
0.125 0.4375 0
0.1875 0.4375 0
0.125 0.5 0
0.1875 0.5 0
0.1875 0.4375 0
0.25 0.4375 0
0.1875 0.5 0
0.25 0.5 0
0.125 0.25 0
0.1875 0.25 0
0.125 0.3125 0
0.1875 0.3125 0
0.1875 0.25 0
0.25 0.25 0
0.1875 0.3125 0
0.25 0.3125 0
0.125 0.3125 0
0.1875 0.3125 0
0.125 0.375 0
0.1875 0.375 0
0.1875 0.3125 0
0.25 0.3125 0
0.1875 0.375 0
0.25 0.375 0
0.125 0.125 0
0.1875 0.125 0
0.125 0.1875 0
0.1875 0.1875 0
0.1875 0.125 0
0.25 0.125 0
0.1875 0.1875 0
0.25 0.1875 0
0.125 0.1875 0
0.1875 0.1875 0
0.125 0.25 0
0.1875 0.25 0
0.1875 0.1875 0
0.25 0.1875 0
0.1875 0.25 0
0.25 0.25 0
0.875 0.3125 0
0.90625 0.3125 0
0.875 0.34375 0
0.90625 0.34375 0
0.90625 0.3125 0
0.9375 0.3125 0
0.90625 0.34375 0
0.9375 0.34375 0
0.875 0.34375 0
0.90625 0.34375 0
0.875 0.375 0
0.90625 0.375 0
0.90625 0.34375 0
0.9375 0.34375 0
0.90625 0.375 0
0.9375 0.375 0
0.875 0.375 0
0.90625 0.375 0
0.875 0.40625 0
0.90625 0.40625 0
0.90625 0.375 0
0.9375 0.375 0
0.90625 0.40625 0
0.9375 0.40625 0
0.875 0.40625 0
0.90625 0.40625 0
0.875 0.4375 0
0.90625 0.4375 0
0.90625 0.40625 0
0.9375 0.40625 0
0.90625 0.4375 0
0.9375 0.4375 0
0.875 0.4375 0
0.90625 0.4375 0
0.875 0.46875 0
0.90625 0.46875 0
0.90625 0.4375 0
0.9375 0.4375 0
0.90625 0.46875 0
0.9375 0.46875 0
0.875 0.46875 0
0.90625 0.46875 0
0.875 0.5 0
0.90625 0.5 0
0.90625 0.46875 0
0.9375 0.46875 0
0.90625 0.5 0
0.9375 0.5 0
0.3125 0.875 0
0.34375 0.875 0
0.3125 0.90625 0
0.34375 0.90625 0
0.34375 0.875 0
0.375 0.875 0
0.34375 0.90625 0
0.375 0.90625 0
0.3125 0.90625 0
0.34375 0.90625 0
0.3125 0.9375 0
0.34375 0.9375 0
0.34375 0.90625 0
0.375 0.90625 0
0.34375 0.9375 0
0.375 0.9375 0
0.375 0.875 0
0.40625 0.875 0
0.375 0.90625 0
0.40625 0.90625 0
0.40625 0.875 0
0.4375 0.875 0
0.40625 0.90625 0
0.4375 0.90625 0
0.375 0.90625 0
0.40625 0.90625 0
0.375 0.9375 0
0.40625 0.9375 0
0.40625 0.90625 0
0.4375 0.90625 0
0.40625 0.9375 0
0.4375 0.9375 0
0.4375 0.875 0
0.46875 0.875 0
0.4375 0.90625 0
0.46875 0.90625 0
0.46875 0.875 0
0.5 0.875 0
0.46875 0.90625 0
0.5 0.90625 0
0.4375 0.90625 0
0.46875 0.90625 0
0.4375 0.9375 0
0.46875 0.9375 0
0.46875 0.90625 0
0.5 0.90625 0
0.46875 0.9375 0
0.5 0.9375 0
0.5625 0.75 0
0.59375 0.75 0
0.5625 0.78125 0
0.59375 0.78125 0
0.59375 0.75 0
0.625 0.75 0
0.59375 0.78125 0
0.625 0.78125 0
0.5625 0.78125 0
0.59375 0.78125 0
0.5625 0.8125 0
0.59375 0.8125 0
0.59375 0.78125 0
0.625 0.78125 0
0.59375 0.8125 0
0.625 0.8125 0
0.9375 0.5 0
0.96875 0.5 0
0.9375 0.53125 0
0.96875 0.53125 0
0.9375 0.53125 0
0.96875 0.53125 0
0.9375 0.5625 0
0.96875 0.5625 0
0.875 0.5625 0
0.90625 0.5625 0
0.875 0.59375 0
[...]
POINT_DATA 4144
SCALARS V double 1
LOOKUP_TABLE default
0 0 0 0.0061533 0 0 0.0061533 0.0145538 0 0.0061533 0 0.0145556 0.0290819 0.0507826 0.0507954 0.0743163 0.171878 0.202571 0.183158 0.217664 0.183158 0.217664 0.194437 0.232799 0.221391 0.265654 0.235832 0.284238 0.265654 0.314296 0.284238 0.336314 0.235832 0.284238 0.253728 0.304673 0.284238 0.336314 0.304673 0.360004 0.253728 0.304673 0.275062 0.327785 0.304673 0.360004 0.327785 0.385718 0.275062 0.327785 0.300498 0.353729 0.327785 0.385718 0.353729 0.413163 0.221465 0.235877 0.265746 0.284258 0.235877 0.253737 0.284258 0.304659 0.265746 0.284258 0.314309 0.336337 0.284258 0.304659 0.336337 0.360012 0.253737 0.275045 0.304659 0.327858 0.275045 0.300522 0.327858 0.353858 0.304659 0.327858 0.360012 0.385692 0.327858 0.353858 0.385692 0.413192 0.194437 0.232799 0.20742 0.248693 0.232799 0.272857 0.248693 0.293215 0.20742 0.248693 0.221391 0.265654 0.248693 0.293215 0.265654 0.314296 0.300498 0.353729 0.329251 0.383868 0.353729 0.413163 0.383868 0.443386 0.329251 0.383868 0.364529 0.418381 0.383868 0.443386 0.418381 0.475894 0.413163 0.476179 0.443386 0.507244 0.364529 0.418381 0.404369 0.455605 0.418381 0.475894 0.455605 0.512432 0.404369 0.455605 0.448592 0.497667 0.300522 0.329619 0.353858 0.384406 0.353858 0.384406 0.413192 0.443698 0.384406 0.4185 0.443698 0.475638 0.364489 0.404134 0.4185 0.456241 0.404134 0.448592 0.456241 0.498184 0.413192 0.443698 0.476234 0.507233 0.171878 0.183215 0.202571 0.217827 0.183215 0.194551 0.217827 0.232796 0.194551 0.207539 0.232796 0.248763 0.207539 0.221465 0.248763 0.265746 0.232796 0.248763 0.272837 0.293307 0.248763 0.265746 0.293307 0.314309 0.448592 0.497667 0.498184 0.543974 0.0694681 0.0973942 0.0794368 0.103512 0.0973942 0.12532 0.103512 0.13548 0.12532 0.159879 0.13548 0.168047 0.159879 0.194437 0.168047 0.20742 0.13548 0.168047 0.145178 0.179067 0.168047 0.20742 0.179067 0.221391 0.0695448 0.0795099 0.0974946 0.103618 0.0974946 0.103618 0.125444 0.135608 0.125444 0.135608 0.159998 0.168201 0.135608 0.145273 0.168201 0.179166 0.159998 0.168201 0.194551 0.207539 0.168201 0.179166 0.207539 0.221465 0.0491081 0.0798006 0.0592881 0.0885974 0.0798006 0.110493 0.0885974 0.117907 0.0592881 0.0885974 0.0694681 0.0973942 0.0885974 0.117907 0.0973942 0.12532 0.110493 0.141186 0.117907 0.150532 0.141186 0.171878 0.150532 0.183158 0.117907 0.150532 0.12532 0.159879 0.150532 0.183158 0.159879 0.194437 0.0491081 0.0593264 0.0798006 0.0886476 0.0593264 0.0695448 0.0886476 0.0974946 0.0798006 0.0886476 0.110493 0.117969 0.0886476 0.0974946 0.117969 0.125444 0.110493 0.117969 0.141186 0.150592 0.117969 0.125444 0.150592 0.159998 0.141186 0.150592 0.171878 0.183215 0.150592 0.159998 0.183215 0.194551 0.145178 0.179067 0.156048 0.19338 0.179067 0.221391 0.19338 0.235832 0.156048 0.19338 0.170039 0.208724 0.19338 0.235832 0.208724 0.253728 0.227972 0.275062 0.252496 0.300498 0.145273 0.156105 0.179166 0.193434 0.156105 0.170064 0.193434 0.208745 0.179166 0.193434 0.221465 0.235877 0.193434 0.208745 0.235877 0.253737 0.227987 0.252533 0.275045 0.300522 0.252496 0.300498 0.281492 0.329251 0.252533 0.281522 0.300522 0.329619 0.316247 0.364529 0.358159 0.404369 0.316316 0.358159 0.364489 0.404134 0.358159 0.404369 0.404134 0.448592 0 0 0.00727689 0.011455 0.00727689 0.011455 0.0145538 0.0233089 0 0.00727782 0 0.0114594 0.00727782 0.0145556 0.0114594 0.0233186 0.0878359 0.112233 0.0973755 0.124355 0.112233 0.145178 0.124355 0.156048 0.0973755 0.124355 0.11097 0.138287 0.124355 0.156048 0.138287 0.170039 0.11097 0.138287 0.127658 0.15608 0.138287 0.170039 0.15608 0.188113 0.127658 0.15608 0.149783 0.178569 0.15608 0.188113 0.178569 0.211355 0.0878749 0.097407 0.112303 0.1244 0.097407 0.110985 0.1244 0.138308 0.112303 0.1244 0.145273 0.156105 0.1244 0.138308 0.156105 0.170064 0.110985 0.127664 0.138308 0.156091 0.127664 0.149783 0.156091 0.178575 0.138308 0.156091 0.170064 0.18813 0.156091 0.178575 0.18813 0.211369 0.149783 0.178569 0.178575 0.205981 0.178569 0.211355 0.205981 0.240037 0.178575 0.205981 0.211369 0.240052 0.048817 0.0694681 0.0577707 0.0794368 0.0414233 0.0577707 0.0507826 0.0667172 0.0577707 0.0794368 0.0667172 0.0878359 0.0507826 0.0667172 0.0610088 0.0768505 0.0667172 0.0878359 0.0768505 0.0973755 0.0610088 0.0768505 0.0743163 0.0899286 0.0768505 0.0973755 0.0899286 0.11097 0.0507954 0.0610163 0.0667459 0.0768673 0.0610163 0.0743163 0.0768673 0.0899361 0.0667459 0.0768673 0.0878749 0.097407 0.0768673 0.0899361 0.097407 0.110985 0.0145538 0.0233089 0.0218178 0.0316206 0.0233089 0.0320639 0.0316206 0.0414233 0.0218178 0.0316206 0.0290819 0.0399323 0.0316206 0.0414233 0.0399323 0.0507826 0.0414385 0.0507954 0.0578007 0.0667459 0.0488403 0.0578007 0.0695448 0.0795099 0.0578007 0.0667459 0.0795099 0.0878749 0.0145556 0.0218188 0.0233186 0.0316286 0.0218188 0.0290819 0.0316286 0.0399387 0.0233186 0.0316286 0.0320815 0.0414385 0.0316286 0.0399387 0.0414385 0.0507954 0.0061533 0.0103535 0.0103545 0.0160862 0.0103535 0.0145538 0.0160862 0.0218178 0.0103545 0.0160862 0.0145556 0.0218188 0.0160862 0.0218178 0.0218188 0.0290819 0.336314 0.363776 0.348159 0.376974 0.363776 0.392497 0.376974 0.404558 0.348159 0.376974 0.360004 0.389484 0.376974 0.404558 0.389484 0.418964 0.360004 0.389484 0.372861 0.402906 0.389484 0.418964 0.402906 0.432951 0.372861 0.402906 0.385718 0.416328 0.402906 0.432951 0.416328 0.446938 0.385718 0.416328 0.39944 0.430499 0.416328 0.446938 0.430499 0.461558 0.39944 0.430499 0.413163 0.444671 0.430499 0.461558 0.444671 0.476179 0.336337 0.348175 0.363787 0.376983 0.348175 0.360012 0.376983 0.389492 0.363787 0.376983 0.392506 0.404566 0.376983 0.389492 0.404566 0.418972 0.360012 0.372852 0.389492 0.402909 0.372852 0.385692 0.402909 0.416325 0.389492 0.402909 0.418972 0.432965 0.402909 0.416325 0.432965 0.446958 0.385692 0.399442 0.416325 0.430519 0.399442 0.413192 0.430519 0.444713 0.416325 0.430519 0.446958 0.461596 0.430519 0.444713 0.461596 0.476234 0.329619 0.347054 0.357013 0.374253 0.347054 0.364489 0.374253 0.391494 0.357013 0.374253 0.384406 0.401453 0.374253 0.391494 0.401453 0.4185 0.476179 0.50663 0.491483 0.521358 0.491483 0.521358 0.507244 0.537225 0.443386 0.474941 0.45964 0.490614 0.474941 0.507244 0.490614 0.52285 0.45964 0.490614 0.475894 0.507166 0.490614 0.52285 0.507166 0.538725 0.52285 0.552547 0.538725 0.56822 0.202571 0.217917 0.210117 0.228049 0.210117 0.228049 0.217664 0.234309 0.475894 0.507166 0.494163 0.52447 0.507166 0.538725 0.52447 0.555352 0.494163 0.52447 0.512432 0.542683 0.52447 0.555352 0.542683 0.57266 0.538725 0.56822 0.555352 0.584151 0.512432 0.542683 0.531087 0.559724 0.542683 0.57266 0.559724 0.588543 0.497667 0.52436 0.52082 0.546164 0.52436 0.551052 0.546164 0.571508 0.52082 0.546164 0.543974 0.567969 0.546164 0.571508 0.567969 0.591965 0.498184 0.521079 0.524671 0.546303 0.521079 0.543974 0.546303 0.567935 0.524671 0.546303 0.551158 0.571528 0.546303 0.567935 0.571528 0.591897 0.443698 0.459668 0.475073 0.490683 0.459668 0.475638 0.490683 0.508421 0.475073 0.490683 0.507233 0.522761 0.490683 0.508421 0.522761 0.539609 0.476234 0.491516 0.506653 0.521388 0.491516 0.507233 0.521388 0.537276 0.507233 0.522761 0.537276 0.552672 0.475638 0.494334 0.508421 0.52425 0.508421 0.52425 0.539609 0.554696 0.217664 0.234309 0.225232 0.243974 0.234309 0.253926 0.243974 0.263279 0.225232 0.243974 0.232799 0.252828 0.243974 0.263279 0.252828 0.272857 0.314296 0.339305 0.325305 0.351515 0.339305 0.366573 0.351515 0.380075 0.325305 0.351515 0.336314 0.363776 0.351515 0.380075 0.363776 0.392497 0.253926 0.271264 0.263279 0.281751 0.271264 0.290767 0.281751 0.302624 0.263279 0.281751 0.272857 0.293333 0.281751 0.302624 0.293333 0.315375 0.314309 0.325323 0.339336 0.351537 0.325323 0.336337 0.351537 0.363787 0.339336 0.351537 0.366587 0.380085 0.351537 0.363787 0.380085 0.392506 0.272857 0.293333 0.283036 0.30453 0.293333 0.315375 0.30453 0.328033 0.283036 0.30453 0.293215 0.316076 0.30453 0.328033 0.316076 0.3408 0.293215 0.316076 0.303756 0.327615 0.316076 0.3408 0.327615 0.353696 0.303756 0.327615 0.314296 0.339305 0.327615 0.353696 0.339305 0.366573 0.202571 0.210199 0.217917 0.228172 0.210199 0.217827 0.228172 0.23428 0.217827 0.225311 0.23428 0.244042 0.225311 0.232796 0.244042 0.252816 0.23428 0.244042 0.253947 0.263261 0.244042 0.252816 0.263261 0.272837 0.253947 0.263261 0.27127 0.281785 0.263261 0.272837 0.281785 0.293398 0.27127 0.281785 0.29077 0.302631 0.281785 0.293398 0.302631 0.315384 0.272837 0.283072 0.293398 0.304572 0.283072 0.293307 0.304572 0.316085 0.293398 0.304572 0.315384 0.328049 0.304572 0.316085 0.328049 0.340821 0.293307 0.303808 0.316085 0.327632 0.303808 0.314309 0.327632 0.339336 0.316085 0.327632 0.340821 0.353714 0.327632 0.339336 0.353714 0.366587 0.543974 0.567969 0.567935 0.59056 0.567969 0.591965 0.59056 0.612856 0.567935 0.59056 0.591897 0.612845 0.59056 0.612856 0.612845 0.636081 0.551052 0.577722 0.571508 0.599583 0.551158 0.571528 0.578005 0.599564 0.0794368 0.0914746 0.0836364 0.0957544 0.0914746 0.103512 0.0957544 0.107872 0.0836364 0.0957544 0.0878359 0.100034 0.0957544 0.107872 0.100034 0.112233 0.103512 0.119496 0.107872 0.124101 0.119496 0.13548 0.124101 0.140329 0.107872 0.124101 0.112233 0.128705 0.124101 0.140329 0.128705 0.145178 0.455605 0.484019 0.476636 0.503809 0.484019 0.512432 0.503809 0.531087 0.476636 0.503809 0.497667 0.52436 0.503809 0.531087 0.52436 0.551052 0.4185 0.436712 0.447069 0.464622 0.436712 0.456241 0.464622 0.484526 0.447069 0.464622 0.475638 0.494334 0.464622 0.484526 0.494334 0.511771 0.456241 0.477213 0.484526 0.502908 0.477213 0.498184 0.502908 0.524671 0.484526 0.502908 0.511771 0.530342 0.502908 0.524671 0.530342 0.551158 0.0795099 0.0836924 0.0915641 0.0958266 0.0836924 0.0878749 0.0958266 0.100089 0.0915641 0.0958266 0.103618 0.107961 0.0958266 0.100089 0.107961 0.112303 0.103618 0.107961 0.119613 0.124201 0.107961 0.112303 0.124201 0.128788 0.119613 0.124201 0.135608 0.14044 0.124201 0.128788 0.14044 0.145273 0.170039 0.189382 0.179076 0.198712 0.189382 0.208724 0.198712 0.218348 0.179076 0.198712 0.188113 0.208043 0.198712 0.218348 0.208043 0.227972 0.208724 0.231226 0.218348 0.241372 0.231226 0.253728 0.241372 0.264395 0.218348 0.241372 0.227972 0.251517 0.241372 0.264395 0.251517 0.275062 0.188113 0.208043 0.199734 0.219984 0.208043 0.227972 0.219984 0.240234 0.199734 0.219984 0.211355 0.231926 0.219984 0.240234 0.231926 0.252496 0.170064 0.179097 0.189404 0.198732 0.179097 0.18813 0.198732 0.208059 0.189404 0.198732 0.208745 0.218366 0.198732 0.208059 0.218366 0.227987 0.18813 0.19975 0.208059 0.220005 0.19975 0.211369 0.220005 0.231951 0.208059 0.220005 0.227987 0.24026 0.220005 0.231951 0.24026 0.252533 0.208745 0.218366 0.231241 0.241379 0.218366 0.227987 0.241379 0.251516 0.231241 0.241379 0.253737 0.264391 0.241379 0.251516 0.264391 0.275045 0.211355 0.231926 0.225696 0.246345 0.231926 0.252496 0.246345 0.266994 0.225696 0.246345 0.240037 0.260765 0.246345 0.266994 0.260765 0.281492 0.240037 0.260765 0.25744 0.278155 0.260765 0.281492 0.278155 0.29887 0.25744 0.278155 0.274843 0.295545 0.278155 0.29887 0.295545 0.316247 0.281492 0.305372 0.29887 0.32288 0.305372 0.329251 0.32288 0.34689 0.29887 0.32288 0.316247 0.340388 0.32288 0.34689 0.340388 0.364529 0.211369 0.225711 0.231951 0.246369 0.225711 0.240052 0.246369 0.260787 0.231951 0.246369 0.252533 0.267027 0.246369 0.260787 0.267027 0.281522 0.240052 0.257447 0.260787 0.278183 0.257447 0.274843 0.278183 0.295579 0.260787 0.278183 0.281522 0.298919 0.278183 0.295579 0.298919 0.316316 0.281522 0.298919 0.30557 0.322986 0.298919 0.316316 0.322986 0.340402 0.30557 0.322986 0.329619 0.347054 0.322986 0.340402 0.347054 0.364489 0.274843 0.295545 0.295579 0.316391 0.295545 0.316247 0.316391 0.337203 0.295579 0.316391 0.316316 0.337237 0.316391 0.337203 0.337237 0.358159 0 0 0.00572748 0.0078992 0 0 0.0078992 0.0100709 0.00572748 0.0078992 0.011455 0.0157984 0.0078992 0.0100709 0.0157984 0.0201419 0.011455 0.0157984 0.0173819 0.0217424 0.0157984 0.0201419 0.0217424 0.0261029 0.0173819 0.0217424 0.0233089 0.0276864 0.0217424 0.0261029 0.0276864 0.0320639 0.0184155 0.0337618 0.0270773 0.0406377 0.0337618 0.0491081 0.0406377 0.0541981 0.0270773 0.0406377 0.0357391 0.0475136 0.0406377 0.0541981 0.0475136 0.0592881 0.0201419 0.0279405 0.0261029 0.0341905 0.0279405 0.0357391 0.0341905 0.042278 0.0261029 0.0341905 0.0320639 0.0404405 0.0341905 0.042278 0.0404405 0.048817 0.0357391 0.0475136 0.042278 0.053328 0.0475136 0.0592881 0.053328 0.0643781 0.042278 0.053328 0.048817 0.0591425 0.053328 0.0643781 0.0591425 0.0694681 0 0.00572969 0 0.00790304 0.00572969 0.0114594 0.00790304 0.0158061 0 0.00790304 0 0.0100764 0.00790304 0.0158061 0.0100764 0.0201528 0.0114594 0.017389 0.0158061 0.0217531 0.017389 0.0233186 0.0217531 0.0277 0.0158061 0.0217531 0.0201528 0.0261171 0.0217531 0.0277 0.0261171 0.0320815 0.0201528 0.0261171 0.0279537 0.0342073 0.0261171 0.0320815 0.0342073 0.0404609 0.0279537 0.0342073 0.0357546 0.0422975 0.0342073 0.0404609 0.0422975 0.0488403 0.0184155 0.0270851 0.0337618 0.0406512 0.0270851 0.0357546 0.0406512 0.0475405 0.0337618 0.0406512 0.0491081 0.0542172 0.0406512 0.0475405 0.0542172 0.0593264 0.0357546 0.0422975 0.0475405 0.0533665 0.0422975 0.0488403 0.0533665 0.0591925 0.0475405 0.0533665 0.0593264 0.0644356 0.0533665 0.0591925 0.0644356 0.0695448 0.205981 0.223009 0.223017 0.240228 0.223009 0.240037 0.240228 0.25744 0.223017 0.240228 0.240052 0.257447 0.240228 0.25744 0.257447 0.274843 0.0320639 0.0404405 0.0367436 0.0450187 0.0404405 0.048817 0.0450187 0.0532938 0.0367436 0.0450187 0.0414233 0.049597 0.0450187 0.0532938 0.049597 0.0577707 0.0743163 0.0821225 0.0821262 0.0900085 0.0821225 0.0899286 0.0900085 0.0978907 0.0821262 0.0900085 0.0899361 0.0978945 0.0900085 0.0978907 0.0978945 0.105853 0.0899286 0.100449 0.0978907 0.108602 0.100449 0.11097 0.108602 0.119314 0.0978907 0.108602 0.105853 0.116755 0.108602 0.119314 0.116755 0.127658 0.0899361 0.0978945 0.10046 0.108609 0.0978945 0.105853 0.108609 0.116758 0.10046 0.108609 0.110985 0.119324 0.108609 0.116758 0.119324 0.127664 0.105853 0.116755 0.116758 0.127739 0.116755 0.127658 0.127739 0.138721 0.116758 0.127739 0.127664 0.138723 0.127739 0.138721 0.138723 0.149783 0.0320815 0.03676 0.0404609 0.0450402 0.03676 0.0414385 0.0450402 0.0496196 0.0404609 0.0450402 0.0488403 0.0533205 0.0450402 0.0496196 0.0533205 0.0578007 0.0100709 0.0198571 0.0201419 0.0279405 0.0198571 0.0270773 0.0279405 0.0357391 0.0100764 0.0201528 0.0198647 0.0279537 0.0198647 0.0279537 0.0270851 0.0357546 0.418964 0.433079 0.425957 0.440263 0.433079 0.447194 0.440263 0.454568 0.425957 0.440263 0.432951 0.447447 0.440263 0.454568 0.447447 0.461943 0.392497 0.400869 0.398528 0.41152 0.400869 0.425268 0.41152 0.431546 0.398528 0.41152 0.404558 0.418063 0.41152 0.431546 0.418063 0.439095 0.404558 0.418063 0.411761 0.425997 0.418063 0.439095 0.425997 0.439932 0.411761 0.425997 0.418964 0.433079 0.425997 0.439932 0.433079 0.447194 0.439095 0.443437 0.439932 0.460349 0.443437 0.463457 0.460349 0.47113 0.439932 0.460349 0.447194 0.466496 0.460349 0.47113 0.466496 0.478804 0.425268 0.430522 0.431546 0.437984 0.430522 0.448111 0.437984 0.455784 0.431546 0.437984 0.439095 0.443437 0.437984 0.455784 0.443437 0.463457 0.447194 0.466496 0.454568 0.474048 0.466496 0.478804 0.474048 0.486477 0.454568 0.474048 0.461943 0.481586 0.474048 0.486477 0.481586 0.49415 0.432951 0.447447 0.439944 0.454607 0.447447 0.461943 0.454607 0.46927 0.439944 0.454607 0.446938 0.461767 0.454607 0.46927 0.461767 0.476596 0.461943 0.481586 0.46927 0.489146 0.481586 0.49415 0.489146 0.501823 0.46927 0.489146 0.476596 0.496729 0.489146 0.501823 0.496729 0.509496 0.446938 0.461767 0.454248 0.469111 0.461767 0.476596 0.469111 0.483973 0.454248 0.469111 0.461558 0.476455 0.469111 0.483973 0.476455 0.491351 0.476596 0.496729 0.483973 0.504327 0.496729 0.509496 0.504327 0.517169 0.483973 0.504327 0.491351 0.51196 0.504327 0.517169 0.51196 0.524842 0.461558 0.476455 0.468869 0.48393 0.476455 0.491351 0.48393 0.498991 0.468869 0.48393 0.476179 0.491405 0.48393 0.498991 0.491405 0.50663 0.491351 0.51196 0.498991 0.519614 0.51196 0.524842 0.519614 0.532515 0.498991 0.519614 0.50663 0.527279 0.519614 0.532515 0.527279 0.540189 0.418972 0.425969 0.433086 0.440272 0.425969 0.432965 0.440272 0.447458 0.433086 0.440272 0.447199 0.454575 0.440272 0.447458 0.454575 0.461951 0.392506 0.398536 0.400875 0.411526 0.398536 0.404566 0.411526 0.418069 0.400875 0.411526 0.425272 0.43155 0.411526 0.418069 0.43155 0.439099 0.404566 0.411769 0.418069 0.426003 0.411769 0.418972 0.426003 0.433086 0.418069 0.426003 0.439099 0.439937 0.426003 0.433086 0.439937 0.447199 0.439099 0.439937 0.443439 0.460351 0.439937 0.447199 0.460351 0.4665 0.443439 0.460351 0.463457 0.47113 0.460351 0.4665 0.47113 0.478804 0.432965 0.439962 0.447458 0.454621 0.439962 0.446958 0.454621 0.461784 0.447458 0.454621 0.461951 0.46928 0.454621 0.461784 0.46928 0.476609 0.425272 0.43155 0.430524 0.437986 0.43155 0.439099 0.437986 0.443439 0.430524 0.437986 0.448111 0.455784 0.437986 0.443439 0.455784 0.463457 0.447199 0.454575 0.4665 0.474052 0.454575 0.461951 0.474052 0.481591 0.4665 0.474052 0.478804 0.486477 0.474052 0.481591 0.486477 0.49415 0.461951 0.46928 0.481591 0.489152 0.46928 0.476609 0.489152 0.496736 0.481591 0.489152 0.49415 0.501823 0.489152 0.496736 0.501823 0.509496 0.446958 0.454277 0.461784 0.469133 0.454277 0.461596 0.469133 0.476483 0.461784 0.469133 0.476609 0.48399 0.469133 0.476483 0.48399 0.49137 0.461596 0.468915 0.476483 0.483963 0.468915 0.476234 0.483963 0.491443 0.476483 0.483963 0.49137 0.499011 0.483963 0.491443 0.499011 0.506653 0.476609 0.48399 0.496736 0.504335 0.48399 0.49137 0.504335 0.51197 0.496736 0.504335 0.509496 0.517169 0.504335 0.51197 0.517169 0.524842 0.49137 0.499011 0.51197 0.519625 0.499011 0.506653 0.519625 0.52729 0.51197 0.519625 0.524842 0.532515 0.519625 0.52729 0.532515 0.540189 0.507244 0.522235 0.515047 0.529967 0.522235 0.537225 0.529967 0.544886 0.515047 0.529967 0.52285 0.537699 0.529967 0.544886 0.537699 0.552547 0.50663 0.527279 0.513933 0.534969 0.527279 0.540189 0.534969 0.547862 0.513933 0.534969 0.521358 0.542639 0.534969 0.547862 0.542639 0.555535 0.555352 0.569752 0.564006 0.577955 0.569752 0.584151 0.577955 0.591905 0.564006 0.577955 0.57266 0.586159 0.577955 0.591905 0.586159 0.599658 0.521358 0.542639 0.529245 0.550226 0.542639 0.555535 0.550226 0.563208 0.529245 0.550226 0.537225 0.557847 0.550226 0.563208 0.557847 0.570881 0.57266 0.586159 0.580602 0.594454 0.586159 0.599658 0.594454 0.608307 0.580602 0.594454 0.588543 0.602749 0.594454 0.608307 0.602749 0.616956 0.537225 0.557847 0.544886 0.565602 0.557847 0.570881 0.565602 0.578554 0.544886 0.565602 0.552547 0.573408 0.565602 0.578554 0.573408 0.586227 0.522761 0.531185 0.537717 0.545735 0.531185 0.539609 0.545735 0.553754 0.537717 0.545735 0.552672 0.560285 0.545735 0.553754 0.560285 0.567899 0.552547 0.573408 0.560336 0.581234 0.573408 0.586227 0.581234 0.593901 0.560336 0.581234 0.56822 0.589078 0.581234 0.593901 0.589078 0.601574 0.539609 0.547153 0.553754 0.561727 0.547153 0.554696 0.561727 0.5697 0.553754 0.561727 0.567899 0.576301 0.561727 0.5697 0.576301 0.584704 0.56822 0.589078 0.576126 0.596943 0.589078 0.601574 0.596943 0.609247 0.576126 0.596943 0.584151 0.604814 0.596943 0.609247 0.604814 0.61692 0.571508 0.585546 0.581736 0.595334 0.585546 0.599583 0.595334 0.608932 0.581736 0.595334 0.591965 0.605123 0.595334 0.608932 0.605123 0.618282 0.584151 0.604814 0.591905 0.612703 0.604814 0.61692 0.612703 0.624593 0.591905 0.612703 0.599658 0.620604 0.612703 0.624593 0.620604 0.632266 0.591965 0.605123 0.60241 0.615443 0.605123 0.618282 0.615443 0.628475 0.60241 0.615443 0.612856 0.625762 0.615443 0.628475 0.625762 0.638668 0.571528 0.581712 0.585546 0.595316 0.581712 0.591897 0.595316 0.605087 0.585546 0.595316 0.599564 0.60892 0.595316 0.605087 0.60892 0.618277 0.59965