# vtk DataFile Version 3.0
#This file was generated by the deal.II library on 2015/6/13 at 15:59:28
ASCII
DATASET UNSTRUCTURED_GRID

POINTS 32 double
-10 0 0
-9.25 0 0
-9.25 0 0
-8.5 0 0
-8.5 0 0
-7.75 0 0
-7.75 0 0
-7 0 0
-7 0 0
-6.25 0 0
-6.25 0 0
-5.5 0 0
-5.5 0 0
-4.75 0 0
-4.75 0 0
-4 0 0
-4 0 0
-3.25 0 0
-3.25 0 0
-2.5 0 0
-2.5 0 0
-1.75 0 0
-1.75 0 0
-1 0 0
-1 0 0
-0.25 0 0
-0.25 0 0
0.5 0 0
0.5 0 0
1.25 0 0
1.25 0 0
2 0 0

CELLS 16 48
2	0	1
2	2	3
2	4	5
2	6	7
2	8	9
2	10	11
2	12	13
2	14	15
2	16	17
2	18	19
2	20	21
2	22	23
2	24	25
2	26	27
2	28	29
2	30	31

CELL_TYPES 16
 3 3 3 3 3 3 3 3 3 3 3 3 3 3 3 3
POINT_DATA 32
SCALARS V double 1
LOOKUP_TABLE default
0.999955 0.999904 0.999904 0.999797 0.999797 0.999569 0.999569 0.999088 0.999088 0.99807 0.99807 0.995913 0.995913 0.991348 0.991348 0.981684 0.981684 0.961226 0.961226 0.917915 0.917915 0.826226 0.826226 0.632121 0.632121 0.221199 0.221199 0 0 0 0 0 
