# vtk DataFile Version 3.0
#This file was generated by the deal.II library on 2015/5/19 at 10:59:21
ASCII
DATASET UNSTRUCTURED_GRID

POINTS 64 double
-1 -1 0
-0.5 -1 0
-1 -0.5 0
-0.5 -0.5 0
-0.5 -1 0
0 -1 0
-0.5 -0.5 0
0 -0.5 0
-1 -0.5 0
-0.5 -0.5 0
-1 0 0
-0.5 0 0
-0.5 -0.5 0
0 -0.5 0
-0.5 0 0
0 0 0
0 -1 0
0.5 -1 0
0 -0.5 0
0.5 -0.5 0
0.5 -1 0
1 -1 0
0.5 -0.5 0
1 -0.5 0
0 -0.5 0
0.5 -0.5 0
0 0 0
0.5 0 0
0.5 -0.5 0
1 -0.5 0
0.5 0 0
1 0 0
-1 0 0
-0.5 0 0
-1 0.5 0
-0.5 0.5 0
-0.5 0 0
0 0 0
-0.5 0.5 0
0 0.5 0
-1 0.5 0
-0.5 0.5 0
-1 1 0
-0.5 1 0
-0.5 0.5 0
0 0.5 0
-0.5 1 0
0 1 0
0 0 0
0.5 0 0
0 0.5 0
0.5 0.5 0
0.5 0 0
1 0 0
0.5 0.5 0
1 0.5 0
0 0.5 0
0.5 0.5 0
0 1 0
0.5 1 0
0.5 0.5 0
1 0.5 0
0.5 1 0
1 1 0

CELLS 16 80
4	0	1	3	2
4	4	5	7	6
4	8	9	11	10
4	12	13	15	14
4	16	17	19	18
4	20	21	23	22
4	24	25	27	26
4	28	29	31	30
4	32	33	35	34
4	36	37	39	38
4	40	41	43	42
4	44	45	47	46
4	48	49	51	50
4	52	53	55	54
4	56	57	59	58
4	60	61	63	62

CELL_TYPES 16
 9 9 9 9 9 9 9 9 9 9 9 9 9 9 9 9
POINT_DATA 64
SCALARS V double 1
LOOKUP_TABLE default
1.9801 1.73259 1.73259 0.74614 1.73259 1.48507 0.74614 0.354262 1.73259 0.74614 1.48507 0.354262 0.74614 0.354262 0.354262 -0.0439885 1.48507 1.23756 0.354262 0.428001 1.23756 0.99005 0.428001 0.742537 0.354262 0.428001 -0.0439885 0.100133 0.428001 0.742537 0.100133 0.495025 1.48507 0.354262 1.23756 0.428001 0.354262 -0.0439885 0.428001 0.100133 1.23756 0.428001 0.99005 0.742537 0.428001 0.100133 0.742537 0.495025 -0.0439885 0.100133 0.100133 0.109861 0.100133 0.495025 0.109861 0.247512 0.100133 0.109861 0.495025 0.247512 0.109861 0.247512 0.247512 0 
