# vtk DataFile Version 3.0
#This file was generated by the deal.II library on 2015/4/22 at 22:35:35
ASCII
DATASET UNSTRUCTURED_GRID

POINTS 4024 double
0.5 0.125 0
0.625 0.125 0
0.5 0.25 0
0.625 0.25 0
0.625 0.125 0
0.75 0.125 0
0.625 0.25 0
0.75 0.25 0
0.125 0.5 0
0.25 0.5 0
0.125 0.625 0
0.25 0.625 0
0.125 0.625 0
0.25 0.625 0
0.125 0.75 0
0.25 0.75 0
0 0 0
0.125 0 0
0 0.125 0
0.125 0.125 0
0.125 0 0
0.25 0 0
0.125 0.125 0
0.25 0.125 0
0 0.125 0
0.125 0.125 0
0 0.25 0
0.125 0.25 0
0.25 0.25 0
0.375 0.25 0
0.25 0.375 0
0.375 0.375 0
0.75 0 0
0.8125 0 0
0.75 0.0625 0
0.8125 0.0625 0
0.75 0.0625 0
0.8125 0.0625 0
0.75 0.125 0
0.8125 0.125 0
0.75 0.25 0
0.8125 0.25 0
0.75 0.3125 0
0.8125 0.3125 0
0.8125 0.25 0
0.875 0.25 0
0.8125 0.3125 0
0.875 0.3125 0
0.75 0.3125 0
0.8125 0.3125 0
0.75 0.375 0
0.8125 0.375 0
0.8125 0.3125 0
0.875 0.3125 0
0.8125 0.375 0
0.875 0.375 0
0.75 0.375 0
0.8125 0.375 0
0.75 0.4375 0
0.8125 0.4375 0
0.8125 0.375 0
0.875 0.375 0
0.8125 0.4375 0
0.875 0.4375 0
0.75 0.4375 0
0.8125 0.4375 0
0.75 0.5 0
0.8125 0.5 0
0.8125 0.4375 0
0.875 0.4375 0
0.8125 0.5 0
0.875 0.5 0
0.25 0.75 0
0.3125 0.75 0
0.25 0.8125 0
0.3125 0.8125 0
0.3125 0.75 0
0.375 0.75 0
0.3125 0.8125 0
0.375 0.8125 0
0.25 0.8125 0
0.3125 0.8125 0
0.25 0.875 0
0.3125 0.875 0
0.3125 0.8125 0
0.375 0.8125 0
0.3125 0.875 0
0.375 0.875 0
0.375 0.75 0
0.4375 0.75 0
0.375 0.8125 0
0.4375 0.8125 0
0.4375 0.75 0
0.5 0.75 0
0.4375 0.8125 0
0.5 0.8125 0
0.375 0.8125 0
0.4375 0.8125 0
0.375 0.875 0
0.4375 0.875 0
0.4375 0.8125 0
0.5 0.8125 0
0.4375 0.875 0
0.5 0.875 0
0.75 0.125 0
0.8125 0.125 0
0.75 0.1875 0
0.8125 0.1875 0
0.8125 0.125 0
0.875 0.125 0
0.8125 0.1875 0
0.875 0.1875 0
0.75 0.1875 0
0.8125 0.1875 0
0.75 0.25 0
0.8125 0.25 0
0.8125 0.1875 0
0.875 0.1875 0
0.8125 0.25 0
0.875 0.25 0
0.75 0.5 0
0.8125 0.5 0
0.75 0.5625 0
0.8125 0.5625 0
0.8125 0.5 0
0.875 0.5 0
0.8125 0.5625 0
0.875 0.5625 0
0.75 0.5625 0
0.8125 0.5625 0
0.75 0.625 0
0.8125 0.625 0
0.8125 0.5625 0
0.875 0.5625 0
0.8125 0.625 0
0.875 0.625 0
0.875 0.5 0
0.9375 0.5 0
0.875 0.5625 0
0.9375 0.5625 0
0.75 0.625 0
0.8125 0.625 0
0.75 0.6875 0
0.8125 0.6875 0
0.8125 0.625 0
0.875 0.625 0
0.8125 0.6875 0
0.875 0.6875 0
0.75 0.6875 0
0.8125 0.6875 0
0.75 0.75 0
0.8125 0.75 0
0.5 0.75 0
0.5625 0.75 0
0.5 0.8125 0
0.5625 0.8125 0
0.5625 0.75 0
0.625 0.75 0
0.5625 0.8125 0
0.625 0.8125 0
0.5 0.8125 0
0.5625 0.8125 0
0.5 0.875 0
0.5625 0.875 0
0.5625 0.8125 0
0.625 0.8125 0
0.5625 0.875 0
0.625 0.875 0
0.625 0.75 0
0.6875 0.75 0
0.625 0.8125 0
0.6875 0.8125 0
0.6875 0.75 0
0.75 0.75 0
0.6875 0.8125 0
0.75 0.8125 0
0.5 0.875 0
0.5625 0.875 0
0.5 0.9375 0
0.5625 0.9375 0
0 0.75 0
0.0625 0.75 0
0 0.8125 0
0.0625 0.8125 0
0.0625 0.75 0
0.125 0.75 0
0.0625 0.8125 0
0.125 0.8125 0
0.125 0.75 0
0.1875 0.75 0
0.125 0.8125 0
0.1875 0.8125 0
0.1875 0.75 0
0.25 0.75 0
0.1875 0.8125 0
0.25 0.8125 0
0.125 0.8125 0
0.1875 0.8125 0
0.125 0.875 0
0.1875 0.875 0
0.1875 0.8125 0
0.25 0.8125 0
0.1875 0.875 0
0.25 0.875 0
0.75 0.75 0
0.8125 0.75 0
0.75 0.8125 0
0.8125 0.8125 0
0.5 0 0
0.5625 0 0
0.5 0.0625 0
0.5625 0.0625 0
0.5625 0 0
0.625 0 0
0.5625 0.0625 0
0.625 0.0625 0
0.5 0.0625 0
0.5625 0.0625 0
0.5 0.125 0
0.5625 0.125 0
0.5625 0.0625 0
0.625 0.0625 0
0.5625 0.125 0
0.625 0.125 0
0.625 0 0
0.6875 0 0
0.625 0.0625 0
0.6875 0.0625 0
0.6875 0 0
0.75 0 0
0.6875 0.0625 0
0.75 0.0625 0
0.625 0.0625 0
0.6875 0.0625 0
0.625 0.125 0
0.6875 0.125 0
0.6875 0.0625 0
0.75 0.0625 0
0.6875 0.125 0
0.75 0.125 0
0 0.5 0
0.0625 0.5 0
0 0.5625 0
0.0625 0.5625 0
0.0625 0.5 0
0.125 0.5 0
0.0625 0.5625 0
0.125 0.5625 0
0 0.5625 0
0.0625 0.5625 0
0 0.625 0
0.0625 0.625 0
0.0625 0.5625 0
0.125 0.5625 0
0.0625 0.625 0
0.125 0.625 0
0 0.625 0
0.0625 0.625 0
0 0.6875 0
0.0625 0.6875 0
0.0625 0.625 0
0.125 0.625 0
0.0625 0.6875 0
0.125 0.6875 0
0 0.6875 0
0.0625 0.6875 0
0 0.75 0
0.0625 0.75 0
0.0625 0.6875 0
0.125 0.6875 0
0.0625 0.75 0
0.125 0.75 0
0.25 0.125 0
0.3125 0.125 0
0.25 0.1875 0
0.3125 0.1875 0
0.3125 0.125 0
0.375 0.125 0
0.3125 0.1875 0
0.375 0.1875 0
0.25 0.1875 0
0.3125 0.1875 0
0.25 0.25 0
0.3125 0.25 0
0.3125 0.1875 0
0.375 0.1875 0
0.3125 0.25 0
0.375 0.25 0
0.125 0.25 0
0.1875 0.25 0
0.125 0.3125 0
0.1875 0.3125 0
0.1875 0.25 0
0.25 0.25 0
0.1875 0.3125 0
0.25 0.3125 0
0.125 0.3125 0
0.1875 0.3125 0
0.125 0.375 0
0.1875 0.375 0
0.1875 0.3125 0
0.25 0.3125 0
0.1875 0.375 0
0.25 0.375 0
0.125 0.125 0
0.1875 0.125 0
0.125 0.1875 0
0.1875 0.1875 0
0.1875 0.125 0
0.25 0.125 0
0.1875 0.1875 0
0.25 0.1875 0
0.125 0.1875 0
0.1875 0.1875 0
0.125 0.25 0
0.1875 0.25 0
0.1875 0.1875 0
0.25 0.1875 0
0.1875 0.25 0
0.25 0.25 0
0.625 0.25 0
0.6875 0.25 0
0.625 0.3125 0
0.6875 0.3125 0
0.6875 0.25 0
0.75 0.25 0
0.6875 0.3125 0
0.75 0.3125 0
0.625 0.3125 0
0.6875 0.3125 0
0.625 0.375 0
0.6875 0.375 0
0.6875 0.3125 0
0.75 0.3125 0
0.6875 0.375 0
0.75 0.375 0
0.6875 0.4375 0
0.75 0.4375 0
0.6875 0.5 0
0.75 0.5 0
0.25 0.625 0
0.3125 0.625 0
0.25 0.6875 0
0.3125 0.6875 0
0.3125 0.625 0
0.375 0.625 0
0.3125 0.6875 0
0.375 0.6875 0
0.25 0.6875 0
0.3125 0.6875 0
0.25 0.75 0
0.3125 0.75 0
0.3125 0.6875 0
0.375 0.6875 0
0.3125 0.75 0
0.375 0.75 0
0.4375 0.6875 0
0.5 0.6875 0
0.4375 0.75 0
0.5 0.75 0
0.6875 0.5 0
0.75 0.5 0
0.6875 0.5625 0
0.75 0.5625 0
0.6875 0.5625 0
0.75 0.5625 0
0.6875 0.625 0
0.75 0.625 0
0.5 0.6875 0
0.5625 0.6875 0
0.5 0.75 0
0.5625 0.75 0
0.6875 0.625 0
0.75 0.625 0
0.6875 0.6875 0
0.75 0.6875 0
0.625 0.6875 0
0.6875 0.6875 0
0.625 0.75 0
0.6875 0.75 0
0.6875 0.6875 0
0.75 0.6875 0
0.6875 0.75 0
0.75 0.75 0
0.25 0 0
0.3125 0 0
0.25 0.0625 0
0.3125 0.0625 0
0.25 0.0625 0
0.3125 0.0625 0
0.25 0.125 0
0.3125 0.125 0
0.375 0.0625 0
0.4375 0.0625 0
0.375 0.125 0
0.4375 0.125 0
0 0.25 0
0.0625 0.25 0
0 0.3125 0
0.0625 0.3125 0
0.0625 0.25 0
0.125 0.25 0
0.0625 0.3125 0
0.125 0.3125 0
0.0625 0.375 0
0.125 0.375 0
0.0625 0.4375 0
0.125 0.4375 0
0.5 0.25 0
0.5625 0.25 0
0.5 0.3125 0
0.5625 0.3125 0
0.5625 0.25 0
0.625 0.25 0
0.5625 0.3125 0
0.625 0.3125 0
0.5 0.3125 0
0.5625 0.3125 0
0.5 0.375 0
0.5625 0.375 0
0.5625 0.3125 0
0.625 0.3125 0
0.5625 0.375 0
0.625 0.375 0
0.5 0.375 0
0.5625 0.375 0
0.5 0.4375 0
0.5625 0.4375 0
0.5625 0.375 0
0.625 0.375 0
0.5625 0.4375 0
0.625 0.4375 0
0.5 0.4375 0
0.5625 0.4375 0
0.5 0.5 0
0.5625 0.5 0
0.5625 0.4375 0
0.625 0.4375 0
0.5625 0.5 0
0.625 0.5 0
0.25 0.5 0
0.3125 0.5 0
0.25 0.5625 0
0.3125 0.5625 0
0.3125 0.5 0
0.375 0.5 0
0.3125 0.5625 0
0.375 0.5625 0
0.25 0.5625 0
0.3125 0.5625 0
0.25 0.625 0
0.3125 0.625 0
0.3125 0.5625 0
0.375 0.5625 0
0.3125 0.625 0
0.375 0.625 0
0.375 0.5 0
0.4375 0.5 0
0.375 0.5625 0
0.4375 0.5625 0
0.4375 0.5 0
0.5 0.5 0
0.4375 0.5625 0
0.5 0.5625 0
0.375 0.5625 0
0.4375 0.5625 0
0.375 0.625 0
0.4375 0.625 0
0.4375 0.5625 0
0.5 0.5625 0
0.4375 0.625 0
0.5 0.625 0
0.5 0.5 0
0.5625 0.5 0
0.5 0.5625 0
0.5625 0.5625 0
0.5625 0.5 0
0.625 0.5 0
0.5625 0.5625 0
0.625 0.5625 0
0.5 0.5625 0
0.5625 0.5625 0
0.5 0.625 0
0.5625 0.625 0
0.4375 0.125 0
0.5 0.125 0
0.4375 0.1875 0
0.5 0.1875 0
0.375 0.1875 0
0.4375 0.1875 0
0.375 0.25 0
0.4375 0.25 0
0.4375 0.1875 0
0.5 0.1875 0
0.4375 0.25 0
0.5 0.25 0
0.375 0.25 0
0.4375 0.25 0
0.375 0.3125 0
0.4375 0.3125 0
0.4375 0.25 0
0.5 0.25 0
0.4375 0.3125 0
0.5 0.3125 0
0.375 0.3125 0
0.4375 0.3125 0
0.375 0.375 0
0.4375 0.375 0
0.4375 0.3125 0
0.5 0.3125 0
0.4375 0.375 0
0.5 0.375 0
0.25 0.375 0
0.3125 0.375 0
0.25 0.4375 0
0.3125 0.4375 0
0.3125 0.375 0
0.375 0.375 0
0.3125 0.4375 0
0.375 0.4375 0
0.25 0.4375 0
0.3125 0.4375 0
0.25 0.5 0
0.3125 0.5 0
0.3125 0.4375 0
0.375 0.4375 0
0.3125 0.5 0
0.375 0.5 0
0.1875 0.375 0
0.25 0.375 0
0.1875 0.4375 0
0.25 0.4375 0
0.125 0.4375 0
0.1875 0.4375 0
0.125 0.5 0
0.1875 0.5 0
0.1875 0.4375 0
0.25 0.4375 0
0.1875 0.5 0
0.25 0.5 0
0.875 0.3125 0
0.90625 0.3125 0
0.875 0.34375 0
0.90625 0.34375 0
0.90625 0.3125 0
0.9375 0.3125 0
0.90625 0.34375 0
0.9375 0.34375 0
0.875 0.34375 0
0.90625 0.34375 0
0.875 0.375 0
0.90625 0.375 0
0.90625 0.34375 0
0.9375 0.34375 0
0.90625 0.375 0
0.9375 0.375 0
0.875 0.375 0
0.90625 0.375 0
0.875 0.40625 0
0.90625 0.40625 0
0.90625 0.375 0
0.9375 0.375 0
0.90625 0.40625 0
0.9375 0.40625 0
0.875 0.40625 0
0.90625 0.40625 0
0.875 0.4375 0
0.90625 0.4375 0
0.90625 0.40625 0
0.9375 0.40625 0
0.90625 0.4375 0
0.9375 0.4375 0
0.875 0.4375 0
0.90625 0.4375 0
0.875 0.46875 0
0.90625 0.46875 0
0.90625 0.4375 0
0.9375 0.4375 0
0.90625 0.46875 0
0.9375 0.46875 0
0.875 0.46875 0
0.90625 0.46875 0
0.875 0.5 0
0.90625 0.5 0
0.90625 0.46875 0
0.9375 0.46875 0
0.90625 0.5 0
0.9375 0.5 0
0.3125 0.875 0
0.34375 0.875 0
0.3125 0.90625 0
0.34375 0.90625 0
0.34375 0.875 0
0.375 0.875 0
0.34375 0.90625 0
0.375 0.90625 0
0.3125 0.90625 0
0.34375 0.90625 0
0.3125 0.9375 0
0.34375 0.9375 0
0.34375 0.90625 0
0.375 0.90625 0
0.34375 0.9375 0
0.375 0.9375 0
0.375 0.875 0
0.40625 0.875 0
0.375 0.90625 0
0.40625 0.90625 0
0.40625 0.875 0
0.4375 0.875 0
0.40625 0.90625 0
0.4375 0.90625 0
0.375 0.90625 0
0.40625 0.90625 0
0.375 0.9375 0
0.40625 0.9375 0
0.40625 0.90625 0
0.4375 0.90625 0
0.40625 0.9375 0
0.4375 0.9375 0
0.4375 0.875 0
0.46875 0.875 0
0.4375 0.90625 0
0.46875 0.90625 0
0.46875 0.875 0
0.5 0.875 0
0.46875 0.90625 0
0.5 0.90625 0
0.4375 0.90625 0
0.46875 0.90625 0
0.4375 0.9375 0
0.46875 0.9375 0
0.46875 0.90625 0
0.5 0.90625 0
0.46875 0.9375 0
0.5 0.9375 0
0.8125 0.75 0
0.84375 0.75 0
0.8125 0.78125 0
0.84375 0.78125 0
0.84375 0.75 0
0.875 0.75 0
0.84375 0.78125 0
0.875 0.78125 0
0.8125 0.78125 0
0.84375 0.78125 0
0.8125 0.8125 0
0.84375 0.8125 0
0.84375 0.78125 0
0.875 0.78125 0
0.84375 0.8125 0
0.875 0.8125 0
0.9375 0.5 0
0.96875 0.5 0
0.9375 0.53125 0
0.96875 0.53125 0
0.9375 0.53125 0
0.96875 0.53125 0
0.9375 0.5625 0
0.96875 0.5625 0
0.875 0.5625 0
0.90625 0.5625 0
0.875 0.59375 0
0.90625 0.59375 0
0.90625 0.5625 0
0.9375 0.5625 0
0.90625 0.59375 0
0.9375 0.59375 0
0.875 0.59375 0
0.90625 0.59375 0
0.875 0.625 0
0.90625 0.625 0
0.90625 0.59375 0
0.9375 0.59375 0
0.90625 0.625 0
0.9375 0.625 0
0.9375 0.59375 0
0.96875 0.59375 0
0.9375 0.625 0
[...]
POINT_DATA 4024
SCALARS V double 1
LOOKUP_TABLE default
0.0752598 0.131323 0.0985609 0.155779 0.131323 0.199503 0.155779 0.230832 0.0752987 0.0985981 0.131375 0.155838 0.131375 0.155838 0.199551 0.230879 0 0 0 0.00763263 0 0 0.00763263 0.017611 0 0.00763263 0 0.0176143 0.0349587 0.0596065 0.0596214 0.0868916 0.171535 0.202166 0.185519 0.219484 0.185519 0.219484 0.199503 0.236861 0.230832 0.273522 0.24775 0.293963 0.273522 0.319759 0.293963 0.343028 0.24775 0.293963 0.267816 0.316023 0.293963 0.343028 0.316023 0.367738 0.267816 0.316023 0.290704 0.340256 0.316023 0.367738 0.340256 0.394373 0.290704 0.340256 0.317867 0.367595 0.340256 0.394373 0.367595 0.422432 0.230879 0.247801 0.273576 0.294 0.247801 0.267867 0.294 0.316058 0.273576 0.294 0.319771 0.343061 0.294 0.316058 0.343061 0.367775 0.267867 0.290748 0.316058 0.340339 0.290748 0.317866 0.340339 0.367599 0.316058 0.340339 0.367775 0.394404 0.340339 0.367599 0.394404 0.422415 0.199503 0.236861 0.214779 0.254698 0.236861 0.27548 0.254698 0.297315 0.214779 0.254698 0.230832 0.273522 0.254698 0.297315 0.273522 0.319759 0.317867 0.367595 0.347013 0.397919 0.367595 0.422432 0.397919 0.452961 0.347013 0.397919 0.381544 0.431763 0.397919 0.452961 0.431763 0.485457 0.422432 0.480474 0.452961 0.511507 0.381544 0.431763 0.420045 0.468281 0.431763 0.485457 0.468281 0.520981 0.420045 0.468281 0.4624 0.508987 0.317866 0.346893 0.367599 0.397932 0.346893 0.381161 0.397932 0.431775 0.367599 0.397932 0.422415 0.453003 0.397932 0.431775 0.453003 0.485173 0.381161 0.419759 0.431775 0.468635 0.419759 0.4624 0.468635 0.509184 0.422415 0.453003 0.480523 0.51144 0.171535 0.185543 0.202166 0.21955 0.185543 0.199551 0.21955 0.236874 0.199551 0.214839 0.236874 0.254744 0.214839 0.230879 0.254744 0.273576 0.236874 0.254744 0.275483 0.297375 0.254744 0.273576 0.297375 0.319771 0.4624 0.508987 0.509184 0.552608 0.0490099 0.0796411 0.0621349 0.0914663 0.0796411 0.110272 0.0914663 0.120798 0.0621349 0.0914663 0.0752598 0.103291 0.0914663 0.120798 0.103291 0.131323 0.110272 0.140904 0.120798 0.153158 0.140904 0.171535 0.153158 0.185519 0.120798 0.153158 0.131323 0.165413 0.153158 0.185519 0.165413 0.199503 0.0490099 0.0621543 0.0796411 0.0914889 0.0621543 0.0752987 0.0914889 0.103337 0.0796411 0.0914889 0.110272 0.120824 0.0914889 0.103337 0.120824 0.131375 0.110272 0.120824 0.140904 0.153183 0.120824 0.131375 0.153183 0.165463 0.140904 0.153183 0.171535 0.185543 0.153183 0.165463 0.185543 0.199551 0.017611 0.0270018 0.0262849 0.0371422 0.0270018 0.0363925 0.0371422 0.0479995 0.0262849 0.0371422 0.0349587 0.0472826 0.0371422 0.0479995 0.0472826 0.0596065 0.0176143 0.0262865 0.0270122 0.0371511 0.0262865 0.0349587 0.0371511 0.0472901 0.0270122 0.0371511 0.0364101 0.0480157 0.0371511 0.0472901 0.0480157 0.0596214 0.00763263 0.0126218 0.0126235 0.0194542 0.0126218 0.017611 0.0194542 0.0262849 0.0126235 0.0194542 0.0176143 0.0262865 0.0194542 0.0262849 0.0262865 0.0349587 0.155779 0.190292 0.170198 0.206699 0.190292 0.230832 0.206699 0.24775 0.170198 0.206699 0.18647 0.224418 0.206699 0.24775 0.224418 0.267816 0.245579 0.290704 0.271436 0.317867 0.155838 0.170249 0.190352 0.206752 0.170249 0.186507 0.206752 0.224463 0.190352 0.206752 0.230879 0.247801 0.206752 0.224463 0.247801 0.267867 0.245632 0.27148 0.290748 0.317866 0.271436 0.317867 0.301003 0.347013 0.301003 0.347013 0.335521 0.381544 0.27148 0.301019 0.317866 0.346893 0.335521 0.381544 0.376056 0.420045 0.335615 0.376056 0.381161 0.419759 0.376056 0.420045 0.419759 0.4624 0 0 0.00880551 0.0135979 0.00880551 0.0135979 0.017611 0.0270018 0.0224618 0.0385099 0.0363925 0.0537776 0 0.00880714 0 0.0136025 0.00880714 0.0176143 0.0136025 0.0270122 0.0224719 0.0364101 0.0385234 0.0537998 0.0985609 0.124004 0.110679 0.138058 0.124004 0.155779 0.138058 0.170198 0.110679 0.138058 0.126615 0.154585 0.138058 0.170198 0.154585 0.18647 0.126615 0.154585 0.145259 0.174356 0.154585 0.18647 0.174356 0.206535 0.145259 0.174356 0.168839 0.198301 0.174356 0.206535 0.198301 0.231222 0.0985981 0.110712 0.124057 0.138101 0.110712 0.126635 0.138101 0.154614 0.124057 0.138101 0.155838 0.170249 0.138101 0.154614 0.170249 0.186507 0.126635 0.145269 0.154614 0.174376 0.145269 0.168839 0.174376 0.198313 0.154614 0.174376 0.186507 0.206568 0.174376 0.198313 0.206568 0.231252 0.168839 0.198301 0.198313 0.226551 0.198301 0.231222 0.226551 0.260598 0.198313 0.226551 0.231252 0.260622 0.0537776 0.0752598 0.0652888 0.0872377 0.0479995 0.0652888 0.0596065 0.0765615 0.0652888 0.0872377 0.0765615 0.0985609 0.0596065 0.0765615 0.0717145 0.0891285 0.0765615 0.0985609 0.0891285 0.110679 0.0717145 0.0891285 0.0868916 0.104196 0.0891285 0.110679 0.104196 0.126615 0.0596214 0.071724 0.0765903 0.089148 0.071724 0.0868916 0.089148 0.104206 0.0765903 0.089148 0.0985981 0.110712 0.089148 0.104206 0.110712 0.126635 0.0480157 0.0596214 0.0653176 0.0765903 0.0537998 0.0653176 0.0752987 0.0872829 0.0653176 0.0765903 0.0872829 0.0985981 0.343028 0.368567 0.355383 0.38215 0.368567 0.395558 0.38215 0.40801 0.355383 0.38215 0.367738 0.395138 0.38215 0.40801 0.395138 0.422538 0.367738 0.395138 0.381055 0.408896 0.395138 0.422538 0.408896 0.436737 0.381055 0.408896 0.394373 0.422654 0.408896 0.436737 0.422654 0.450936 0.394373 0.422654 0.408403 0.437054 0.422654 0.450936 0.437054 0.465705 0.408403 0.437054 0.422432 0.451453 0.437054 0.465705 0.451453 0.480474 0.343061 0.355418 0.368587 0.382172 0.355418 0.367775 0.382172 0.395166 0.368587 0.382172 0.395572 0.408025 0.382172 0.395166 0.408025 0.422556 0.367775 0.38109 0.395166 0.408925 0.38109 0.394404 0.408925 0.422684 0.395166 0.408925 0.422556 0.43676 0.408925 0.422684 0.43676 0.450965 0.394404 0.408409 0.422684 0.437077 0.408409 0.422415 0.437077 0.451469 0.422684 0.437077 0.450965 0.465744 0.437077 0.451469 0.465744 0.480523 0.508987 0.533637 0.530797 0.554364 0.533637 0.558288 0.554364 0.577931 0.530797 0.554364 0.552608 0.575091 0.554364 0.577931 0.575091 0.597574 0.480474 0.508374 0.495791 0.523137 0.495791 0.523137 0.511507 0.538902 0.452961 0.481873 0.469209 0.497557 0.481873 0.511507 0.497557 0.527104 0.469209 0.497557 0.485457 0.514005 0.497557 0.527104 0.514005 0.542929 0.527104 0.554236 0.542929 0.569874 0.202166 0.217482 0.210825 0.228275 0.210825 0.228275 0.219484 0.235987 0.485457 0.514005 0.503219 0.530888 0.514005 0.542929 0.530888 0.559376 0.503219 0.530888 0.520981 0.548636 0.530888 0.559376 0.548636 0.576426 0.542929 0.569874 0.559376 0.585766 0.520981 0.548636 0.539141 0.56561 0.548636 0.576426 0.56561 0.592349 0.509184 0.530896 0.533787 0.554425 0.530896 0.552608 0.554425 0.575064 0.533787 0.554425 0.558389 0.577955 0.554425 0.575064 0.577955 0.597521 0.18647 0.205444 0.196502 0.21575 0.205444 0.224418 0.21575 0.234999 0.196502 0.21575 0.206535 0.226057 0.21575 0.234999 0.226057 0.245579 0.453003 0.469088 0.4819 0.497421 0.469088 0.485173 0.497421 0.514815 0.4819 0.497421 0.51144 0.526899 0.497421 0.514815 0.526899 0.543537 0.480523 0.495798 0.508389 0.523162 0.495798 0.51144 0.523162 0.538925 0.51144 0.526899 0.538925 0.554333 0.485173 0.503294 0.514815 0.530709 0.514815 0.530709 0.543537 0.558801 0.219484 0.235987 0.228172 0.246421 0.235987 0.255023 0.246421 0.265042 0.228172 0.246421 0.236861 0.25617 0.246421 0.265042 0.25617 0.27548 0.319759 0.343239 0.331394 0.355866 0.343239 0.368971 0.355866 0.382748 0.331394 0.355866 0.343028 0.368567 0.355866 0.382748 0.368567 0.395558 0.255023 0.271941 0.265042 0.282983 0.271941 0.291015 0.282983 0.30321 0.265042 0.282983 0.27548 0.29513 0.282983 0.30321 0.29513 0.316357 0.319771 0.331416 0.343269 0.355891 0.331416 0.343061 0.355891 0.368587 0.343269 0.355891 0.368986 0.382761 0.355891 0.368587 0.382761 0.395572 0.27548 0.29513 0.286397 0.306898 0.29513 0.316357 0.306898 0.329388 0.286397 0.306898 0.297315 0.318967 0.306898 0.329388 0.318967 0.342513 0.297315 0.318967 0.308537 0.331039 0.318967 0.342513 0.331039 0.355756 0.308537 0.331039 0.319759 0.343239 0.331039 0.355756 0.343239 0.368971 0.202166 0.210858 0.217482 0.228343 0.210858 0.21955 0.228343 0.235936 0.21955 0.228212 0.235936 0.246479 0.228212 0.236874 0.246479 0.256178 0.235936 0.246479 0.255043 0.265038 0.246479 0.256178 0.265038 0.275483 0.255043 0.265038 0.271949 0.283015 0.265038 0.275483 0.283015 0.295184 0.271949 0.283015 0.291022 0.303217 0.283015 0.295184 0.303217 0.316361 0.275483 0.286429 0.295184 0.306928 0.286429 0.297375 0.306928 0.31897 0.295184 0.306928 0.316361 0.329399 0.306928 0.31897 0.329399 0.342532 0.297375 0.308573 0.31897 0.331053 0.308573 0.319771 0.331053 0.343269 0.31897 0.331053 0.342532 0.355773 0.331053 0.343269 0.355773 0.368986 0.552608 0.575091 0.575064 0.596663 0.575091 0.597574 0.596663 0.617699 0.575064 0.596663 0.597521 0.617709 0.596663 0.617699 0.617709 0.639679 0.224418 0.246117 0.234999 0.257129 0.246117 0.267816 0.257129 0.27926 0.234999 0.257129 0.245579 0.268141 0.257129 0.27926 0.268141 0.290704 0.206535 0.226057 0.218878 0.238693 0.226057 0.245579 0.238693 0.258508 0.218878 0.238693 0.231222 0.251329 0.238693 0.258508 0.251329 0.271436 0.468281 0.494631 0.488634 0.513906 0.494631 0.520981 0.513906 0.539141 0.488634 0.513906 0.508987 0.533637 0.513906 0.539141 0.533637 0.558288 0.431775 0.450205 0.458474 0.475872 0.450205 0.468635 0.475872 0.495232 0.458474 0.475872 0.485173 0.503294 0.475872 0.495232 0.503294 0.520412 0.468635 0.48891 0.495232 0.513225 0.48891 0.509184 0.513225 0.533787 0.495232 0.513225 0.520412 0.538575 0.513225 0.533787 0.538575 0.558389 0.186507 0.196538 0.205485 0.215793 0.196538 0.206568 0.215793 0.2261 0.205485 0.215793 0.224463 0.235048 0.215793 0.2261 0.235048 0.245632 0.206568 0.21891 0.2261 0.238733 0.21891 0.231252 0.238733 0.251366 0.2261 0.238733 0.245632 0.258556 0.238733 0.251366 0.258556 0.27148 0.224463 0.235048 0.246165 0.257178 0.235048 0.245632 0.257178 0.26819 0.246165 0.257178 0.267867 0.279308 0.257178 0.26819 0.279308 0.290748 0.231222 0.251329 0.24591 0.266065 0.251329 0.271436 0.266065 0.28622 0.24591 0.266065 0.260598 0.2808 0.266065 0.28622 0.2808 0.301003 0.260598 0.2808 0.277929 0.298096 0.2808 0.301003 0.298096 0.318262 0.277929 0.298096 0.295261 0.315391 0.298096 0.318262 0.315391 0.335521 0.231252 0.245937 0.251366 0.266093 0.245937 0.260622 0.266093 0.280821 0.251366 0.266093 0.27148 0.286249 0.266093 0.280821 0.286249 0.301019 0.260622 0.277941 0.280821 0.298129 0.277941 0.295261 0.298129 0.315438 0.280821 0.298129 0.301019 0.318317 0.298129 0.315438 0.318317 0.335615 0.301019 0.318317 0.323956 0.341172 0.318317 0.335615 0.341172 0.358388 0.323956 0.341172 0.346893 0.364027 0.341172 0.358388 0.364027 0.381161 0.295261 0.315391 0.315438 0.335613 0.315391 0.335521 0.335613 0.355788 0.315438 0.335613 0.335615 0.355836 0.335613 0.355788 0.355836 0.376056 0.0135979 0.0180299 0.0202998 0.0248635 0.0180299 0.0224618 0.0248635 0.0294272 0.0202998 0.0248635 0.0270018 0.0316972 0.0248635 0.0294272 0.0316972 0.0363925 0.0183787 0.0336943 0.0284443 0.0420084 0.0336943 0.0490099 0.0420084 0.0555724 0.0284443 0.0420084 0.0385099 0.0503224 0.0420084 0.0555724 0.0503224 0.0621349 0.0385099 0.0503224 0.0461438 0.0574205 0.0503224 0.0621349 0.0574205 0.0686973 0.0461438 0.0574205 0.0537776 0.0645187 0.0574205 0.0686973 0.0645187 0.0752598 0.0136025 0.0203073 0.0180372 0.0248742 0.0203073 0.0270122 0.0248742 0.0317111 0.0180372 0.0248742 0.0224719 0.029441 0.0248742 0.0317111 0.029441 0.0364101 0.0183787 0.028451 0.0336943 0.0420166 0.028451 0.0385234 0.0420166 0.0503388 0.0336943 0.0420166 0.0490099 0.0555821 0.0420166 0.0503388 0.0555821 0.0621543 0.0385234 0.0461616 0.0503388 0.057444 0.0461616 0.0537998 0.057444 0.0645493 0.0503388 0.057444 0.0621543 0.0687265 0.057444 0.0645493 0.0687265 0.0752987 0 0 0.00679895 0.00918136 0 0 0.00918136 0.0113562 0.00679895 0.00918136 0.0135979 0.0180299 0.00918136 0.0113562 0.0180299 0.0224618 0.226551 0.243574 0.243587 0.260758 0.243574 0.260598 0.260758 0.277929 0.243587 0.260758 0.260622 0.277941 0.260758 0.277929 0.277941 0.295261 0.0363925 0.0450851 0.042196 0.0508646 0.0450851 0.0537776 0.0508646 0.0595332 0.042196 0.0508646 0.0479995 0.0566442 0.0508646 0.0595332 0.0566442 0.0652888 0.0868916 0.0955438 0.0955488 0.104328 0.0955438 0.104196 0.104328 0.113107 0.0955488 0.104328 0.104206 0.113112 0.104328 0.113107 0.113112 0.122017 0.104196 0.115406 0.113107 0.124522 0.115406 0.126615 0.124522 0.135937 0.113107 0.124522 0.122017 0.133638 0.124522 0.135937 0.133638 0.145259 0 0.00680125 0 0.00918498 0.00680125 0.0136025 0.00918498 0.0180372 0 0.00918498 0 0.0113611 0.00918498 0.0180372 0.0113611 0.0224719 0.104206 0.113112 0.11542 0.124532 0.113112 0.122017 0.124532 0.133643 0.11542 0.124532 0.126635 0.135952 0.124532 0.133643 0.135952 0.145269 0.122017 0.133638 0.133643 0.145346 0.133638 0.145259 0.145346 0.157049 0.133643 0.145346 0.145269 0.157054 0.145346 0.157049 0.157054 0.168839 0.0364101 0.0422129 0.045105 0.0508858 0.0422129 0.0480157 0.0508858 0.0566667 0.045105 0.0508858 0.0537998 0.0595587 0.0508858 0.0566667 0.0595587 0.0653176 0.0113562 0.0211093 0.0224618 0.0300014 0.0211093 0.0284443 0.0300014 0.0385099 0.0113611 0.0224719 0.0211164 0.0300143 0.0211164 0.0300143 0.028451 0.0385234 0.422538 0.435595 0.429638 0.442854 0.435595 0.448652 0.442854 0.45607 0.429638 0.442854 0.436737 0.450113 0.442854 0.45607 0.450113 0.463488 0.395558 0.403216 0.401784 0.413716 0.403216 0.425942 0.413716 0.432284 0.401784 0.413716 0.40801 0.420377 0.413716 0.432284 0.420377 0.439962 0.40801 0.420377 0.415274 0.428513 0.420377 0.439962 0.428513 0.441179 0.415274 0.428513 0.422538 0.435595 0.428513 0.441179 0.435595 0.448652 0.439962 0.443851 0.441179 0.46018 0.443851 0.462531 0.46018 0.470189 0.441179 0.46018 0.448652 0.466278 0.46018 0.470189 0.466278 0.477847 0.425942 0.430829 0.432284 0.438389 0.430829 0.447216 0.438389 0.454873 0.432284 0.438389 0.439962 0.443851 0.438389 0.454873 0.443851 0.462531 0.448652 0.466278 0.45607 0.473878 0.466278 0.477847 0.473878 0.485505 0.45607 0.473878 0.463488 0.481427 0.473878 0.485505 0.481427 0.493162 0.436737 0.450113 0.443837 0.457351 0.450113 0.463488 0.457351 0.470866 0.443837 0.457351 0.450936 0.46459 0.457351 0.470866 0.46459 0.478244 0.463488 0.481427 0.470866 0.488997 0.481427 0.493162 0.488997 0.50082 0.470866 0.488997 0.478244 0.496587 0.488997 0.50082 0.496587 0.508478 0.450936 0.46459 0.45832 0.471983 0.46459 0.478244 0.471983 0.485646 0.45832 0.471983 0.465705 0.479376 0.471983 0.485646 0.479376 0.493048 0.478244 0.496587 0.485646 0.504186 0.496587 0.508478 0.504186 0.516136 0.485646 0.504186 0.493048 0.511815 0.504186 0.516136 0.511815 0.523794 0.465705 0.479376 0.473089 0.4869 0.479376 0.493048 0.4869 0.500711 0.473089 0.4869 0.480474 0.494424 0.4869 0.500711 0.494424 0.508374 0.493048 0.511815 0.500711 0.519458 0.511815 0.523794 0.519458 0.531451 0.500711 0.519458 0.508374 0.527113 0.519458 0.531451 0.527113 0.539109 0.422556 0.429658 0.435608 0.442869 0.429658 0.43676 0.442869 0.45013 0.435608 0.442869 0.44866 0.456079 0.442869 0.45013 0.456079 0.463499 0.395572 0.401799 0.403226 0.413727 0.401799 0.408025 0.413727 0.420388 0.403226 0.413727 0.425949 0.432291 0.413727 0.420388 0.432291 0.43997 0.408025 0.415291 0.420388 0.428526 0.415291 0.422556 0.428526 0.435608 0.420388 0.428526 0.43997 0.441187 0.428526 0.435608 0.441187 0.44866 0.43997 0.441187 0.443855 0.460184 0.441187 0.44866 0.460184 0.466282 0.443855 0.460184 0.462531 0.470189 0.460184 0.466282 0.470189 0.477847 0.43676 0.443863 0.45013 0.45737 0.443863 0.450965 0.45737 0.464611 0.45013 0.45737 0.463499 0.470878 0.45737 0.464611 0.470878 0.478257 0.425949 0.432291 0.430833 0.438393 0.432291 0.43997 0.438393 0.443855 0.430833 0.438393 0.447216 0.454873 0.438393 0.443855 0.454873 0.462531 0.44866 0.456079 0.466282 0.473883 0.456079 0.463499 0.473883 0.481432 0.466282 0.473883 0.477847 0.485505 0.473883 0.481432 0.485505 0.493162 0.463499 0.470878 0.481432 0.489002 0.470878 0.478257 0.489002 0.496593 0.481432 0.489002 0.493162 0.50082 0.489002 0.496593 0.50082 0.508478 0.450965 0.458354 0.464611 0.472007 0.458354 0.465744 0.472007 0.479404 0.464611 0.472007 0.478257 0.48566 0.472007 0.479404 0.48566 0.493064 0.465744 0.473133 0.479404 0.48693 0.473133 0.480523 0.48693 0.494456 0.479404 0.48693 0.493064 0.500727 0.48693 0.494456 0.500727 0.508389 0.478257 0.48566 0.496593 0.504193 0.48566 0.493064 0.504193 0.511822 0.496593 0.504193 0.508478 0.516136 0.504193 0.511822 0.516136 0.523794 0.493064 0.500727 0.511822 0.519466 0.500727 0.508389 0.519466 0.527121 0.511822 0.519466 0.523794 0.531451 0.519466 0.527121 0.531451 0.539109 0.511507 0.525205 0.519306 0.532937 0.525205 0.538902 0.532937 0.546569 0.519306 0.532937 0.527104 0.54067 0.532937 0.546569 0.54067 0.554236 0.508374 0.527113 0.5157 0.534801 0.527113 0.539109 0.534801 0.546767 0.5157 0.534801 0.523137 0.542466 0.534801 0.546767 0.542466 0.554425 0.559376 0.572571 0.567901 0.580689 0.572571 0.585766 0.580689 0.593478 0.567901 0.580689 0.576426 0.588808 0.580689 0.593478 0.588808 0.601189 0.523137 0.542466 0.530977 0.550038 0.542466 0.554425 0.550038 0.562083 0.530977 0.550038 0.538902 0.557642 0.550038 0.562083 0.557642 0.56974 0.576426 0.588808 0.584388 0.59705 0.588808 0.601189 0.59705 0.609712 0.584388 0.59705 0.592349 0.605292 0.59705 0.609712 0.605292 0.618235 0.538902 0.557642 0.546569 0.56538 0.557642 0.56974 0.56538 0.577398 0.546569 0.56538 0.554236 0.573168 0.56538 0.577398 0.573168 0.585056 0.526899 0.535218 0.540616 0.54857 0.535218 0.543537 0.54857 0.556525 0.540616 0.54857 0.554333 0.561922 0.54857 0.556525 0.561922 0.569512 0.554236 0.573168 0.56201 0.580972 0.573168 0.585056 0.580972 0.592714 0.56201 0.580972 0.569874 0.588789 0.580972 0.592714 0.588789 0.600372 0.543537 0.551169 0.556525 0.5645 0.551169 0.558801 0.5645 0.572476 0.556525 0.5645 0.569512 0.577831 0.5645 0.572476 0.577831 0.586151 0.569874 0.588789 0.57776 0.596626 0.588789 0.600372 0.596626 0.608029 0.57776 0.596626 0.585766 0.604471 0.596626 0.608029 0.604471 0.615687 0.558288 0.570726 0.56811 0.58086 0.570726 0.583163 0.58086 0.59361 0.56811 0.58086 0.577931 0.590994 0.58086 0.59361 0.590994 0.604056 0.585766 0.604471 0.593478 0.612336 0.604471 0.615687 0.612336 0.623345 0.593478 0.612336 0.601189 0.620198 0.612336 0.623345 0.620198 0.631003 0.577931 0.590994 0.587753 0.600418 0.590994 0.604056 0.600418 0.613083 0.587753 0.600418 0.597574 0.609842 0.600418 0.613083 0.609842 0.622111 0.597574 0.609842 0.607636 0.619781 0.609842 0.622111 0.619781 0.631925 0.607636 0.619781 0.617699 0.629719 0.619781 0.631925 0.629719 0.64174 0.601189 0.620198 0.609712 0.627995 0.620198 0.631003 0.627995 0.638661 0.609712 0.627995 0.618235 0.635717 0.627995 0.638661 0.635717 0.646318 0.592349 0.605292 0.600228 0.614426 0.605292 0.618235 0.614426 0.624852 0.600228 0.614426 0.610089 0.617312 0.614426 0.624852 0.617312 0.644752 0.618235 0.635717 0.624852 0.645812 0.635717 0.646318 0.645812 0.653976 0.624852 0.645812 0.644752 0.641344 0.645812 0.653976 0.641344 0.661634 0.558389 0.568172 0.570854 0.580926 0.568172 0.577955 0.580926 0.590998 0.570854 0.580926 0.58332 0.59368 0.580926 0.590998 0.59368 0.604041 0.577955 0.587738 0.590998 0.600414 0.587738 0.597521 0.600414 0.609829 0.590998 0.600414 0.604041 0.613089 0.600414 0.609829 0.613089 0.622138 0.508389 0.51572 0.527121 0.534811 0.51572 0.523162 0.534811 0.542477 0.527121 0.534811 0.539109 0.546767 0.534811 0.542477 0.546767 0.554425 0.523162 0.531008 0.542477 0.550046 0.531008 0.538925 0.550046 0.557639 0.542477 0.550046 0.554425 0.562083 0.550046 0.557639 0.562083 0.56974 0.597521 0.607615 0.609829 0.61978 0.607615 0.617709 0.61978 0.62973 0.609829 0.61978 0.622138 0.631945 0.61978 0.62973 0.631945 0.641752 0 0.00153156 0.00567808 0.00888216 0.00153156 0.00306312 0.00888216 0.0120862 0.00567808 0.00888216 0.0113562 0.0162328 0.00888216 0.0120862 0.0162328 0.0211093 0.538925 0.546569 0.557639 0.565367 0.546569 0.554333 0.565367 0.573146 0.557639 0.565367 0.56974 0.577398 0.565367 0.573146 0.577398 0.585056 0.554333 0.