# vtk DataFile Version 3.0
#This file was generated by the deal.II library on 2015/4/22 at 22:35:31
ASCII
DATASET UNSTRUCTURED_GRID

POINTS 6904 double
0.25 0.125 0
0.375 0.125 0
0.25 0.25 0
0.375 0.25 0
0.375 0.125 0
0.5 0.125 0
0.375 0.25 0
0.5 0.25 0
0.125 0.25 0
0.25 0.25 0
0.125 0.375 0
0.25 0.375 0
0.125 0.375 0
0.25 0.375 0
0.125 0.5 0
0.25 0.5 0
0 0 0
0.125 0 0
0 0.125 0
0.125 0.125 0
0.125 0 0
0.25 0 0
0.125 0.125 0
0.25 0.125 0
0 0.125 0
0.125 0.125 0
0 0.25 0
0.125 0.25 0
0.125 0.125 0
0.25 0.125 0
0.125 0.25 0
0.25 0.25 0
0.625 0.125 0
0.6875 0.125 0
0.625 0.1875 0
0.6875 0.1875 0
0.6875 0.125 0
0.75 0.125 0
0.6875 0.1875 0
0.75 0.1875 0
0.625 0.1875 0
0.6875 0.1875 0
0.625 0.25 0
0.6875 0.25 0
0.125 0.625 0
0.1875 0.625 0
0.125 0.6875 0
0.1875 0.6875 0
0.1875 0.625 0
0.25 0.625 0
0.1875 0.6875 0
0.25 0.6875 0
0.125 0.6875 0
0.1875 0.6875 0
0.125 0.75 0
0.1875 0.75 0
0.5 0 0
0.5625 0 0
0.5 0.0625 0
0.5625 0.0625 0
0.5625 0 0
0.625 0 0
0.5625 0.0625 0
0.625 0.0625 0
0.5 0.0625 0
0.5625 0.0625 0
0.5 0.125 0
0.5625 0.125 0
0.5625 0.0625 0
0.625 0.0625 0
0.5625 0.125 0
0.625 0.125 0
0.5 0.125 0
0.5625 0.125 0
0.5 0.1875 0
0.5625 0.1875 0
0.5625 0.125 0
0.625 0.125 0
0.5625 0.1875 0
0.625 0.1875 0
0.5 0.1875 0
0.5625 0.1875 0
0.5 0.25 0
0.5625 0.25 0
0.5625 0.1875 0
0.625 0.1875 0
0.5625 0.25 0
0.625 0.25 0
0 0.5 0
0.0625 0.5 0
0 0.5625 0
0.0625 0.5625 0
0.0625 0.5 0
0.125 0.5 0
0.0625 0.5625 0
0.125 0.5625 0
0 0.5625 0
0.0625 0.5625 0
0 0.625 0
0.0625 0.625 0
0.0625 0.5625 0
0.125 0.5625 0
0.0625 0.625 0
0.125 0.625 0
0.125 0.5 0
0.1875 0.5 0
0.125 0.5625 0
0.1875 0.5625 0
0.1875 0.5 0
0.25 0.5 0
0.1875 0.5625 0
0.25 0.5625 0
0.125 0.5625 0
0.1875 0.5625 0
0.125 0.625 0
0.1875 0.625 0
0.1875 0.5625 0
0.25 0.5625 0
0.1875 0.625 0
0.25 0.625 0
0.625 0.3125 0
0.6875 0.3125 0
0.625 0.375 0
0.6875 0.375 0
0.625 0.375 0
0.6875 0.375 0
0.625 0.4375 0
0.6875 0.4375 0
0.625 0.4375 0
0.6875 0.4375 0
0.625 0.5 0
0.6875 0.5 0
0.3125 0.625 0
0.375 0.625 0
0.3125 0.6875 0
0.375 0.6875 0
0.375 0.625 0
0.4375 0.625 0
0.375 0.6875 0
0.4375 0.6875 0
0.4375 0.625 0
0.5 0.625 0
0.4375 0.6875 0
0.5 0.6875 0
0.25 0 0
0.3125 0 0
0.25 0.0625 0
0.3125 0.0625 0
0.3125 0 0
0.375 0 0
0.3125 0.0625 0
0.375 0.0625 0
0.25 0.0625 0
0.3125 0.0625 0
0.25 0.125 0
0.3125 0.125 0
0.3125 0.0625 0
0.375 0.0625 0
0.3125 0.125 0
0.375 0.125 0
0.4375 0 0
0.5 0 0
0.4375 0.0625 0
0.5 0.0625 0
0.375 0.0625 0
0.4375 0.0625 0
0.375 0.125 0
0.4375 0.125 0
0.4375 0.0625 0
0.5 0.0625 0
0.4375 0.125 0
0.5 0.125 0
0 0.25 0
0.0625 0.25 0
0 0.3125 0
0.0625 0.3125 0
0.0625 0.25 0
0.125 0.25 0
0.0625 0.3125 0
0.125 0.3125 0
0 0.3125 0
0.0625 0.3125 0
0 0.375 0
0.0625 0.375 0
0.0625 0.3125 0
0.125 0.3125 0
0.0625 0.375 0
0.125 0.375 0
0.0625 0.375 0
0.125 0.375 0
0.0625 0.4375 0
0.125 0.4375 0
0 0.4375 0
0.0625 0.4375 0
0 0.5 0
0.0625 0.5 0
0.0625 0.4375 0
0.125 0.4375 0
0.0625 0.5 0
0.125 0.5 0
0.25 0.25 0
0.3125 0.25 0
0.25 0.3125 0
0.3125 0.3125 0
0.3125 0.25 0
0.375 0.25 0
0.3125 0.3125 0
0.375 0.3125 0
0.25 0.3125 0
0.3125 0.3125 0
0.25 0.375 0
0.3125 0.375 0
0.3125 0.3125 0
0.375 0.3125 0
0.3125 0.375 0
0.375 0.375 0
0.375 0.25 0
0.4375 0.25 0
0.375 0.3125 0
0.4375 0.3125 0
0.4375 0.25 0
0.5 0.25 0
0.4375 0.3125 0
0.5 0.3125 0
0.375 0.3125 0
0.4375 0.3125 0
0.375 0.375 0
0.4375 0.375 0
0.4375 0.3125 0
0.5 0.3125 0
0.4375 0.375 0
0.5 0.375 0
0.25 0.375 0
0.3125 0.375 0
0.25 0.4375 0
0.3125 0.4375 0
0.3125 0.375 0
0.375 0.375 0
0.3125 0.4375 0
0.375 0.4375 0
0.25 0.4375 0
0.3125 0.4375 0
0.25 0.5 0
0.3125 0.5 0
0.3125 0.4375 0
0.375 0.4375 0
0.3125 0.5 0
0.375 0.5 0
0.375 0.375 0
0.4375 0.375 0
0.375 0.4375 0
0.4375 0.4375 0
0.4375 0.375 0
0.5 0.375 0
0.4375 0.4375 0
0.5 0.4375 0
0.375 0.4375 0
0.4375 0.4375 0
0.375 0.5 0
0.4375 0.5 0
0.4375 0.4375 0
0.5 0.4375 0
0.4375 0.5 0
0.5 0.5 0
0.875 0.3125 0
0.90625 0.3125 0
0.875 0.34375 0
0.90625 0.34375 0
0.90625 0.3125 0
0.9375 0.3125 0
0.90625 0.34375 0
0.9375 0.34375 0
0.875 0.34375 0
0.90625 0.34375 0
0.875 0.375 0
0.90625 0.375 0
0.90625 0.34375 0
0.9375 0.34375 0
0.90625 0.375 0
0.9375 0.375 0
0.875 0.375 0
0.90625 0.375 0
0.875 0.40625 0
0.90625 0.40625 0
0.90625 0.375 0
0.9375 0.375 0
0.90625 0.40625 0
0.9375 0.40625 0
0.875 0.40625 0
0.90625 0.40625 0
0.875 0.4375 0
0.90625 0.4375 0
0.90625 0.40625 0
0.9375 0.40625 0
0.90625 0.4375 0
0.9375 0.4375 0
0.9375 0.375 0
0.96875 0.375 0
0.9375 0.40625 0
0.96875 0.40625 0
0.9375 0.40625 0
0.96875 0.40625 0
0.9375 0.4375 0
0.96875 0.4375 0
0.875 0.4375 0
0.90625 0.4375 0
0.875 0.46875 0
0.90625 0.46875 0
0.90625 0.4375 0
0.9375 0.4375 0
0.90625 0.46875 0
0.9375 0.46875 0
0.875 0.46875 0
0.90625 0.46875 0
0.875 0.5 0
0.90625 0.5 0
0.90625 0.46875 0
0.9375 0.46875 0
0.90625 0.5 0
0.9375 0.5 0
0.9375 0.4375 0
0.96875 0.4375 0
0.9375 0.46875 0
0.96875 0.46875 0
0.9375 0.46875 0
0.96875 0.46875 0
0.9375 0.5 0
0.96875 0.5 0
0.3125 0.875 0
0.34375 0.875 0
0.3125 0.90625 0
0.34375 0.90625 0
0.34375 0.875 0
0.375 0.875 0
0.34375 0.90625 0
0.375 0.90625 0
0.3125 0.90625 0
0.34375 0.90625 0
0.3125 0.9375 0
0.34375 0.9375 0
0.34375 0.90625 0
0.375 0.90625 0
0.34375 0.9375 0
0.375 0.9375 0
0.375 0.875 0
0.40625 0.875 0
0.375 0.90625 0
0.40625 0.90625 0
0.40625 0.875 0
0.4375 0.875 0
0.40625 0.90625 0
0.4375 0.90625 0
0.375 0.90625 0
0.40625 0.90625 0
0.375 0.9375 0
0.40625 0.9375 0
0.40625 0.90625 0
0.4375 0.90625 0
0.40625 0.9375 0
0.4375 0.9375 0
0.4375 0.875 0
0.46875 0.875 0
0.4375 0.90625 0
0.46875 0.90625 0
0.46875 0.875 0
0.5 0.875 0
0.46875 0.90625 0
0.5 0.90625 0
0.4375 0.90625 0
0.46875 0.90625 0
0.4375 0.9375 0
0.46875 0.9375 0
0.46875 0.90625 0
0.5 0.90625 0
0.46875 0.9375 0
0.5 0.9375 0
0.375 0.9375 0
0.40625 0.9375 0
0.375 0.96875 0
0.40625 0.96875 0
0.40625 0.9375 0
0.4375 0.9375 0
0.40625 0.96875 0
0.4375 0.96875 0
0.4375 0.9375 0
0.46875 0.9375 0
0.4375 0.96875 0
0.46875 0.96875 0
0.46875 0.9375 0
0.5 0.9375 0
0.46875 0.96875 0
0.5 0.96875 0
0.875 0.5 0
0.90625 0.5 0
0.875 0.53125 0
0.90625 0.53125 0
0.90625 0.5 0
0.9375 0.5 0
0.90625 0.53125 0
0.9375 0.53125 0
0.90625 0.53125 0
0.9375 0.53125 0
0.90625 0.5625 0
0.9375 0.5625 0
0.9375 0.5 0
0.96875 0.5 0
0.9375 0.53125 0
0.96875 0.53125 0
0.9375 0.53125 0
0.96875 0.53125 0
0.9375 0.5625 0
0.96875 0.5625 0
0.90625 0.5625 0
0.9375 0.5625 0
0.90625 0.59375 0
0.9375 0.59375 0
0.90625 0.59375 0
0.9375 0.59375 0
0.90625 0.625 0
0.9375 0.625 0
0.9375 0.59375 0
0.96875 0.59375 0
0.9375 0.625 0
0.96875 0.625 0
0.8125 0 0
0.84375 0 0
0.8125 0.03125 0
0.84375 0.03125 0
0.90625 0.625 0
0.9375 0.625 0
0.90625 0.65625 0
0.9375 0.65625 0
0.9375 0.6875 0
0.96875 0.6875 0
0.9375 0.71875 0
0.96875 0.71875 0
0.75 0.09375 0
0.78125 0.09375 0
0.75 0.125 0
0.78125 0.125 0
0.78125 0.09375 0
0.8125 0.09375 0
0.78125 0.125 0
0.8125 0.125 0
0.5 0.875 0
0.53125 0.875 0
0.5 0.90625 0
0.53125 0.90625 0
0.5 0.90625 0
0.53125 0.90625 0
0.5 0.9375 0
0.53125 0.9375 0
0.53125 0.90625 0
0.5625 0.90625 0
0.53125 0.9375 0
0.5625 0.9375 0
0.5625 0.90625 0
0.59375 0.90625 0
0.5625 0.9375 0
0.59375 0.9375 0
0.5 0.9375 0
0.53125 0.9375 0
0.5 0.96875 0
0.53125 0.96875 0
0.53125 0.9375 0
0.5625 0.9375 0
0.53125 0.96875 0
0.5625 0.96875 0
0.625 0.9375 0
0.65625 0.9375 0
0.625 0.96875 0
0.65625 0.96875 0
0.8125 0.0625 0
0.84375 0.0625 0
0.8125 0.09375 0
0.84375 0.09375 0
0.84375 0.0625 0
0.875 0.0625 0
0.84375 0.09375 0
0.875 0.09375 0
0.8125 0.09375 0
0.84375 0.09375 0
0.8125 0.125 0
0.84375 0.125 0
0.84375 0.09375 0
0.875 0.09375 0
0.84375 0.125 0
0.875 0.125 0
0.875 0.25 0
0.90625 0.25 0
0.875 0.28125 0
0.90625 0.28125 0
0.875 0.28125 0
0.90625 0.28125 0
0.875 0.3125 0
0.90625 0.3125 0
0.875 0.0625 0
0.90625 0.0625 0
0.875 0.09375 0
0.90625 0.09375 0
0.875 0.09375 0
0.90625 0.09375 0
0.875 0.125 0
0.90625 0.125 0
0.25 0.875 0
0.28125 0.875 0
0.25 0.90625 0
0.28125 0.90625 0
0.28125 0.875 0
0.3125 0.875 0
0.28125 0.90625 0
0.3125 0.90625 0
0.875 0.125 0
0.90625 0.125 0
0.875 0.15625 0
0.90625 0.15625 0
0.875 0.15625 0
0.90625 0.15625 0
0.875 0.1875 0
0.90625 0.1875 0
0.875 0.1875 0
0.90625 0.1875 0
0.875 0.21875 0
0.90625 0.21875 0
0.875 0.21875 0
0.90625 0.21875 0
0.875 0.25 0
0.90625 0.25 0
0 0.8125 0
0.03125 0.8125 0
0 0.84375 0
0.03125 0.84375 0
0.03125 0.8125 0
0.0625 0.8125 0
0.03125 0.84375 0
0.0625 0.84375 0
0.0625 0.8125 0
0.09375 0.8125 0
0.0625 0.84375 0
0.09375 0.84375 0
0.09375 0.8125 0
0.125 0.8125 0
0.09375 0.84375 0
0.125 0.84375 0
0.0625 0.84375 0
0.09375 0.84375 0
0.0625 0.875 0
0.09375 0.875 0
0.09375 0.84375 0
0.125 0.84375 0
0.09375 0.875 0
0.125 0.875 0
0.0625 0.875 0
0.09375 0.875 0
0.0625 0.90625 0
0.09375 0.90625 0
0.09375 0.875 0
0.125 0.875 0
0.09375 0.90625 0
0.125 0.90625 0
0.125 0.875 0
0.15625 0.875 0
0.125 0.90625 0
0.15625 0.90625 0
0.15625 0.875 0
0.1875 0.875 0
0.15625 0.90625 0
0.1875 0.90625 0
0.1875 0.875 0
0.21875 0.875 0
0.1875 0.90625 0
0.21875 0.90625 0
0.21875 0.875 0
0.25 0.875 0
0.21875 0.90625 0
0.25 0.90625 0
0.875 0.8125 0
0.90625 0.8125 0
0.875 0.84375 0
0.90625 0.84375 0
0.8125 0.875 0
0.84375 0.875 0
0.8125 0.90625 0
0.84375 0.90625 0
0.75 0 0
0.78125 0 0
0.75 0.03125 0
0.78125 0.03125 0
0.75 0.03125 0
0.78125 0.03125 0
0.75 0.0625 0
0.78125 0.0625 0
0.8125 0.65625 0
0.84375 0.65625 0
0.8125 0.6875 0
0.84375 0.6875 0
0.84375 0.65625 0
0.875 0.65625 0
0.84375 0.6875 0
0.875 0.6875 0
0.8125 0.6875 0
0.84375 0.6875 0
0.8125 0.71875 0
0.84375 0.71875 0
0.84375 0.6875 0
0.875 0.6875 0
0.84375 0.71875 0
0.875 0.71875 0
0.8125 0.71875 0
0.84375 0.71875 0
0.8125 0.75 0
0.84375 0.75 0
0.65625 0.8125 0
0.6875 0.8125 0
0.65625 0.84375 0
0.6875 0.84375 0
0.65625 0.84375 0
0.6875 0.84375 0
0.65625 0.875 0
0.6875 0.875 0
0.6875 0.8125 0
0.71875 0.8125 0
0.6875 0.84375 0
0.71875 0.84375 0
0.71875 0.8125 0
0.75 0.8125 0
0.71875 0.84375 0
0.75 0.84375 0
0 0.75 0
0.03125 0.75 0
0 0.78125 0
0.03125 0.78125 0
0.09375 0.75 0
0.125 0.75 0
0.09375 0.78125 0
0.125 0.78125 0
0.09375 0.78125 0
0.125 0.78125 0
0.09375 0.8125 0
0.125 0.8125 0
0.625 0 0
0.65625 0 0
0.625 0.03125 0
0.65625 0.03125 0
0.65625 0 0
0.6875 0 0
[...]
POINT_DATA 6904
SCALARS V double 1
LOOKUP_TABLE default
0.00340048 0.011327 0.00428426 0.00774807 0.011327 0.0351502 0.00774807 0.0193921 0.00340154 0.00428426 0.0113326 0.0077529 0.0113326 0.0077529 0.0351673 0.0194094 0 0 0 0.000849403 0 0 0.000849403 0.00340048 0 0.000849403 0 0.00340154 0.000849403 0.00340048 0.00340154 0.00428426 0.0739745 0.10448 0.0614474 0.0890359 0.10448 0.139614 0.0890359 0.127436 0.0614474 0.0890359 0.0498215 0.0778893 0.0740088 0.0614871 0.104521 0.0890855 0.0614871 0.0498557 0.0890855 0.0779327 0.104521 0.0890855 0.139604 0.127491 0.0496512 0.0806832 0.0425342 0.0656152 0.0806832 0.111715 0.0656152 0.0939058 0.0425342 0.0656152 0.0351502 0.0525863 0.0656152 0.0939058 0.0525863 0.0739745 0.0351502 0.0525863 0.026625 0.0406998 0.0525863 0.0739745 0.0406998 0.0614474 0.026625 0.0406998 0.0193921 0.0311008 0.0406998 0.0614474 0.0311008 0.0498215 0.0496512 0.042544 0.0806832 0.0656316 0.042544 0.0351673 0.0656316 0.0526116 0.0806832 0.0656316 0.111715 0.0939225 0.0656316 0.0526116 0.0939225 0.0740088 0.0351673 0.026646 0.0526116 0.0407293 0.026646 0.0194094 0.0407293 0.0311281 0.0526116 0.0407293 0.0740088 0.0614871 0.0407293 0.0311281 0.0614871 0.0498557 0.0431569 0.0714171 0.0405196 0.0713294 0.0405196 0.0713294 0.0414383 0.0733633 0.0414383 0.0733633 0.0462346 0.0803323 0.0431851 0.0405358 0.0714493 0.0713508 0.0405358 0.0414474 0.0713508 0.0733755 0.0414474 0.0462383 0.0733755 0.0803386 0 0 0.00170024 0.00412147 0 0 0.00412147 0.00975235 0.00170024 0.00412147 0.00340048 0.005321 0.00412147 0.00975235 0.005321 0.011327 0.0186192 0.0496512 0.0225026 0.0425342 0.00975235 0.0225026 0.011327 0.0200487 0.0225026 0.0425342 0.0200487 0.0351502 0 0.00170077 0 0.00412302 0.00170077 0.00340154 0.00412302 0.005323 0 0.00412302 0 0.00975556 0.00412302 0.005323 0.00975556 0.0113326 0.00975556 0.0113326 0.0225088 0.020058 0.0186192 0.0225088 0.0496512 0.042544 0.0225088 0.020058 0.042544 0.0351673 0.00428426 0.00601616 0.00601858 0.00661361 0.00601616 0.00774807 0.00661361 0.00720864 0.00601858 0.00661361 0.0077529 0.00721106 0.00661361 0.00720864 0.00721106 0.00666922 0.00774807 0.0135701 0.00720864 0.0114396 0.0135701 0.0193921 0.0114396 0.0156706 0.00720864 0.0114396 0.00666922 0.00930912 0.0114396 0.0156706 0.00930912 0.011949 0.0077529 0.00721106 0.0135812 0.0114471 0.00721106 0.00666922 0.0114471 0.00931312 0.0135812 0.0114471 0.0194094 0.0156832 0.0114471 0.00931312 0.0156832 0.011957 0.00666922 0.00930912 0.00931312 0.0117187 0.00930912 0.011949 0.0117187 0.0141244 0.00931312 0.0117187 0.011957 0.0141284 0.0117187 0.0141244 0.0141284 0.0162997 0.258088 0.303026 0.263552 0.310919 0.303026 0.351773 0.310919 0.36503 0.263552 0.310919 0.270585 0.31877 0.310919 0.36503 0.31877 0.375094 0.270585 0.31877 0.277976 0.328482 0.31877 0.375094 0.328482 0.386599 0.277976 0.328482 0.285989 0.338462 0.328482 0.386599 0.338462 0.398091 0.375094 0.427549 0.386599 0.440568 0.386599 0.440568 0.398091 0.454217 0.285989 0.338462 0.294743 0.348552 0.338462 0.398091 0.348552 0.409637 0.294743 0.348552 0.304275 0.359481 0.348552 0.409637 0.359481 0.422277 0.398091 0.454217 0.409637 0.468034 0.409637 0.468034 0.422277 0.481843 0.258112 0.263573 0.303046 0.310936 0.263573 0.270603 0.310936 0.318785 0.303046 0.310936 0.351786 0.365042 0.310936 0.318785 0.365042 0.375105 0.270603 0.277992 0.318785 0.328495 0.277992 0.286002 0.328495 0.338473 0.318785 0.328495 0.375105 0.386608 0.328495 0.338473 0.386608 0.398099 0.286002 0.294755 0.338473 0.34856 0.294755 0.304285 0.34856 0.359491 0.338473 0.34856 0.398099 0.409644 0.34856 0.359491 0.409644 0.422287 0.375105 0.386608 0.427554 0.440573 0.386608 0.398099 0.440573 0.454221 0.398099 0.409644 0.454221 0.468037 0.409644 0.422287 0.468037 0.481849 0.304275 0.359481 0.314597 0.371513 0.359481 0.422277 0.371513 0.435803 0.371513 0.435803 0.385863 0.448052 0.422277 0.481843 0.435803 0.496433 0.435803 0.496433 0.448052 0.509405 0.385863 0.448052 0.399298 0.462758 0.399298 0.462758 0.414143 0.477809 0.462758 0.524603 0.477809 0.539832 0.204811 0.220327 0.204881 0.212087 0.414143 0.477809 0.429079 0.491877 0.509354 0.572195 0.533049 0.588339 0.150338 0.168485 0.139614 0.160599 0.168485 0.189757 0.160599 0.186173 0.304285 0.314613 0.359491 0.371532 0.359491 0.371532 0.422287 0.435826 0.371532 0.385872 0.435826 0.448145 0.385872 0.3995 0.448145 0.462585 0.422287 0.435826 0.481849 0.496454 0.435826 0.448145 0.496454 0.509468 0.475791 0.496562 0.540022 0.554862 0.188168 0.216251 0.189757 0.21178 0.216251 0.235332 0.21178 0.235015 0.189757 0.21178 0.186173 0.207988 0.21178 0.235015 0.207988 0.238264 0.248782 0.288796 0.253115 0.295086 0.253115 0.295086 0.258088 0.303026 0.235332 0.259352 0.235015 0.263006 0.235015 0.263006 0.238264 0.266213 0.248819 0.253145 0.288821 0.295108 0.253145 0.258112 0.295108 0.303046 0.238264 0.266213 0.237906 0.271344 0.237906 0.271344 0.242568 0.276353 0.242568 0.276353 0.2445 0.282398 0.2445 0.282398 0.248782 0.288796 0.204811 0.204749 0.220327 0.211983 0.204749 0.187753 0.211983 0.216091 0.187753 0.190398 0.216091 0.211561 0.190398 0.185678 0.211561 0.207999 0.216091 0.211561 0.235417 0.235076 0.211561 0.207999 0.235076 0.238428 0.235417 0.235076 0.259373 0.263032 0.235076 0.238428 0.263032 0.266211 0.238428 0.237973 0.266211 0.271356 0.237973 0.242581 0.271356 0.27638 0.242581 0.244526 0.27638 0.282427 0.244526 0.248819 0.282427 0.288821 0.493303 0.540875 0.529681 0.57028 0.49331 0.529684 0.540923 0.570287 0.173779 0.189295 0.166792 0.18384 0.166792 0.18384 0.152774 0.170489 0.267585 0.317134 0.287002 0.335881 0.317134 0.369487 0.335881 0.389095 0.287002 0.335881 0.310008 0.359591 0.335881 0.389095 0.359591 0.410432 0.310008 0.359591 0.339088 0.386496 0.267565 0.286934 0.317001 0.336585 0.317001 0.336585 0.369517 0.389119 0.286934 0.309941 0.336585 0.360433 0.309941 0.339088 0.360433 0.38633 0.173779 0.167 0.189295 0.183919 0.149884 0.139604 0.170203 0.160091 0.170203 0.160091 0.190398 0.185678 0.111715 0.127231 0.102811 0.117973 0.127231 0.142747 0.117973 0.133853 0.102811 0.117973 0.0939058 0.105361 0.142747 0.158263 0.133853 0.151023 0.158263 0.173779 0.151023 0.166792 0.133853 0.151023 0.118343 0.135595 0.151023 0.166792 0.135595 0.152774 0.0939058 0.105361 0.0839401 0.0994346 0.105361 0.118343 0.0994346 0.114771 0.0839401 0.0994346 0.0739745 0.087896 0.0994346 0.114771 0.087896 0.10448 0.118343 0.135595 0.114771 0.131968 0.135595 0.152774 0.131968 0.150338 0.114771 0.131968 0.10448 0.120384 0.131968 0.150338 0.120384 0.139614 0.119248 0.145417 0.117625 0.143964 0.145417 0.177907 0.143964 0.177751 0.143964 0.177751 0.144188 0.179094 0.111715 0.102819 0.127231 0.11799 0.102819 0.0939225 0.11799 0.105393 0.127231 0.11799 0.142747 0.133858 0.0939225 0.0839657 0.105393 0.099476 0.0839657 0.0740088 0.099476 0.0879327 0.105393 0.099476 0.118354 0.114801 0.099476 0.0879327 0.114801 0.104521 0.142747 0.133858 0.158263 0.151025 0.133858 0.118354 0.151025 0.135691 0.158263 0.151025 0.173779 0.167 0.151025 0.135691 0.167 0.152605 0.118354 0.114801 0.135691 0.132034 0.114801 0.104521 0.132034 0.120465 0.135691 0.132034 0.152605 0.149884 0.132034 0.120465 0.149884 0.139604 0.177751 0.209465 0.179094 0.212511 0.144188 0.179094 0.145215 0.181598 0.145215 0.181598 0.147437 0.185085 0.147437 0.185085 0.15038 0.189435 0.15038 0.189435 0.154363 0.194645 0.11929 0.117664 0.145459 0.144003 0.145459 0.144003 0.177939 0.177789 0.144003 0.144223 0.177789 0.179128 0.144223 0.145243 0.179128 0.181625 0.145243 0.14746 0.181625 0.185107 0.177789 0.179128 0.209499 0.21254 0.14746 0.150399 0.185107 0.189454 0.150399 0.154377 0.189454 0.19466 0.139614 0.160599 0.133023 0.153429 0.160599 0.186173 0.153429 0.18078 0.133023 0.153429 0.127436 0.151338 0.153429 0.18078 0.151338 0.180428 0.127436 0.151338 0.123342 0.146719 0.151338 0.180428 0.146719 0.178019 0.123342 0.146719 0.119248 0.145417 0.146719 0.178019 0.145417 0.177907 0.139604 0.133098 0.160091 0.153548 0.133098 0.127491 0.153548 0.151444 0.160091 0.153548 0.185678 0.180859 0.153548 0.151444 0.180859 0.180566 0.127491 0.123391 0.151444 0.146749 0.123391 0.11929 0.146749 0.145459 0.151444 0.146749 0.180566 0.178051 0.146749 0.145459 0.178051 0.177939 0.0890359 0.108236 0.0834626 0.103402 0.108236 0.127436 0.103402 0.123342 0.0834626 0.103402 0.0778893 0.0985684 0.103402 0.123342 0.0985684 0.119248 0.0890855 0.0835091 0.108288 0.10345 0.0835091 0.0779327 0.10345 0.0986115 0.108288 0.10345 0.127491 0.123391 0.10345 0.0986115 0.123391 0.11929 0.0498215 0.0638554 0.0464892 0.0605712 0.0638554 0.0778893 0.0605712 0.0746532 0.0464892 0.0605712 0.0431569 0.057287 0.0605712 0.0746532 0.057287 0.0714171 0.0778893 0.0985684 0.0746532 0.0961389 0.0985684 0.119248 0.0961389 0.117625 0.0746532 0.0961389 0.0714171 0.0937094 0.0961389 0.117625 0.0937094 0.116002 0.0498557 0.0465204 0.0638942 0.0606057 0.0465204 0.0431851 0.0606057 0.0573172 0.0638942 0.0606057 0.0779327 0.074691 0.0606057 0.0573172 0.074691 0.0714493 0.0779327 0.074691 0.0986115 0.0961773 0.074691 0.0714493 0.0961773 0.0937431 0.0986115 0.0961773 0.11929 0.117664 0.0961773 0.0937431 0.117664 0.116037 0.0193921 0.0252464 0.0175313 0.0229486 0.0252464 0.0311008 0.0229486 0.0283658 0.0175313 0.0229486 0.0156706 0.0206507 0.0229486 0.0283658 0.0206507 0.0256309 0.0311008 0.0404611 0.0283658 0.0374275 0.0404611 0.0498215 0.0374275 0.0464892 0.0283658 0.0374275 0.0256309 0.0343939 0.0374275 0.0464892 0.0343939 0.0431569 0.0156706 0.0206507 0.0138098 0.0189715 0.0206507 0.0256309 0.0189715 0.0241332 0.0138098 0.0189715 0.011949 0.0172922 0.0189715 0.0241332 0.0172922 0.0226354 0.0256309 0.0343939 0.0241332 0.0329857 0.0343939 0.0431569 0.0329857 0.0418382 0.0241332 0.0329857 0.0226354 0.0315775 0.0329857 0.0418382 0.0315775 0.0405196 0.011949 0.0172922 0.0130367 0.0179138 0.0172922 0.0226354 0.0179138 0.0227908 0.0130367 0.0179138 0.0141244 0.0185353 0.0179138 0.0227908 0.0185353 0.0229463 0.0226354 0.0315775 0.0227908 0.0318849 0.0315775 0.0405196 0.0318849 0.0409789 0.0227908 0.0318849 0.0229463 0.0321923 0.0318849 0.0409789 0.0321923 0.0414383 0.0141244 0.0185353 0.015212 0.0201186 0.0185353 0.0229463 0.0201186 0.0250252 0.015212 0.0201186 0.0162997 0.0217019 0.0201186 0.0250252 0.0217019 0.0271042 0.0714171 0.0937094 0.0710439 0.0920834 0.0937094 0.116002 0.0920834 0.116983 0.0710439 0.0920834 0.0713294 0.0927041 0.0920834 0.116983 0.0927041 0.117865 0.0229463 0.0321923 0.0250252 0.0344308 0.0321923 0.0414383 0.0344308 0.0438364 0.0250252 0.0344308 0.0271042 0.0366694 0.0344308 0.0438364 0.0366694 0.0462346 0.0713294 0.0927041 0.0714027 0.0938399 0.0927041 0.117865 0.0938399 0.119886 0.0714027 0.0938399 0.0733633 0.0959431 0.0938399 0.119886 0.0959431 0.122611 0.0462346 0.0602416 0.0522166 0.0646101 0.0602416 0.0803323 0.0646101 0.085195 0.0522166 0.0646101 0.0581985 0.0725922 0.0646101 0.085195 0.0725922 0.0933456 0.0733633 0.0959431 0.0758128 0.100014 0.0959431 0.122611 0.100014 0.126994 0.0758128 0.100014 0.0803323 0.104609 0.100014 0.126994 0.104609 0.132224 0.0462383 0.052219 0.0602465 0.0646129 0.052219 0.0581998 0.0646129 0.0725937 0.0602465 0.0646129 0.0803386 0.0851988 0.0646129 0.0725937 0.0851988 0.0933475 0.0714493 0.07107 0.0937431 0.0921125 0.07107 0.0713508 0.0921125 0.0927261 0.0937431 0.0921125 0.116037 0.117013 0.0921125 0.0927261 0.117013 0.117888 0.0194094 0.0175463 0.0252688 0.022968 0.0175463 0.0156832 0.022968 0.0206672 0.0252688 0.022968 0.0311281 0.0283896 0.022968 0.0206672 0.0283896 0.0256511 0.0156832 0.0138201 0.0206672 0.0189848 0.0138201 0.011957 0.0189848 0.0173025 0.0206672 0.0189848 0.0256511 0.0241495 0.0189848 0.0173025 0.0241495 0.022648 0.0713508 0.0714182 0.0927261 0.0938571 0.0714182 0.0733755 0.0938571 0.0959563 0.0927261 0.0938571 0.117888 0.119904 0.0938571 0.0959563 0.119904 0.122625 0.0733755 0.0758211 0.0959563 0.100023 0.0758211 0.0803386 0.100023 0.104616 0.0959563 0.100023 0.122625 0.127004 0.100023 0.104616 0.127004 0.132232 0.0311281 0.0283896 0.0404919 0.037455 0.0283896 0.0256511 0.037455 0.0344181 0.0404919 0.037455 0.0498557 0.0465204 0.037455 0.0344181 0.0465204 0.0431851 0.0803323 0.104609 0.085195 0.110886 0.104609 0.132224 0.110886 0.138947 0.085195 0.110886 0.0933456 0.118618 0.110886 0.138947 0.118618 0.147279 0.0256511 0.0241495 0.0344181 0.033005 0.0241495 0.022648 0.033005 0.0315919 0.0344181 0.033005 0.0431851 0.0418604 0.033005 0.0315919 0.0418604 0.0405358 0.0933456 0.118618 0.101832 0.129174 0.118618 0.147279 0.129174 0.158027 0.101832 0.129174 0.115704 0.141992 0.129174 0.158027 0.141992 0.171149 0.011957 0.0130427 0.0173025 0.0179215 0.0130427 0.0141284 0.0179215 0.0185406 0.0173025 0.0179215 0.022648 0.0228004 0.0179215 0.0185406 0.0228004 0.0229528 0.0141284 0.015214 0.0185406 0.0201217 0.015214 0.0162997 0.0201217 0.0217029 0.0185406 0.0201217 0.0229528 0.0250295 0.0201217 0.0217029 0.0250295 0.0271062 0.0803386 0.0851988 0.104616 0.11089 0.0851988 0.0933475 0.11089 0.118619 0.104616 0.11089 0.132232 0.13895 0.11089 0.118619 0.13895 0.147279 0.0933475 0.101832 0.118619 0.129174 0.101832 0.115704 0.129174 0.14199 0.118619 0.129174 0.147279 0.158025 0.129174 0.14199 0.158025 0.171142 0.0812339 0.0942974 0.0942979 0.112261 0.0942974 0.115704 0.112261 0.130947 0.0942979 0.112261 0.115704 0.130948 0.112261 0.130947 0.130948 0.150348 0.115704 0.141992 0.130947 0.159073 0.141992 0.171149 0.159073 0.188224 0.130947 0.159073 0.150348 0.178316 0.159073 0.188224 0.178316 0.20738 0.115704 0.130948 0.14199 0.159072 0.130948 0.150348 0.159072 0.178315 0.14199 0.159072 0.171142 0.188216 0.159072 0.178315 0.188216 0.207368 0.150348 0.178316 0.178315 0.205326 0.178316 0.20738 0.205326 0.23425 0.178315 0.205326 0.207368 0.234238 0.205326 0.23425 0.234238 0.262945 0.022648 0.0228004 0.0315919 0.031896 0.0228004 0.0229528 0.031896 0.0322001 0.0315919 0.031896 0.0405358 0.0409916 0.031896 0.0322001 0.0409916 0.0414474 0 0.0031032 0.00735484 0.0106648 0.0031032 0.0186192 0.0106648 0.0220941 0.00735484 0.0106648 0.00975235 0.0140826 0.0106648 0.0220941 0.0140826 0.0225026 0.0229528 0.0250295 0.0322001 0.0344362 0.0250295 0.0271062 0.0344362 0.0366723 0.0322001 0.0344362 0.0414474 0.0438428 0.0344362 0.0366723 0.0438428 0.0462383 0 0.00735658 0.0031032 0.0106672 0.00735658 0.00975556 0.0106672 0.0140868 0.0031032 0.0106672 0.0186192 0.0220975 0.0106672 0.0140868 0.0220975 0.0225088 0.0368082 0.0475034 0.047504 0.0540702 0.0475034 0.0581985 0.0540702 0.0678199 0.047504 0.0540702 0.0581998 0.0678202 0.0540702 0.0678199 0.0678202 0.0812339 0.0162997 0.0217019 0.0217029 0.0268296 0.0217019 0.0271042 0.0268296 0.0319562 0.0217029 0.0268296 0.0271062 0.0319572 0.0268296 0.0319562 0.0319572 0.0368082 0.0271042 0.0366694 0.0319562 0.0420864 0.0366694 0.0462346 0.0420864 0.0522166 0.0319562 0.0420864 0.0368082 0.0475034 0.0420864 0.0522166 0.0475034 0.0581985 0.0271062 0.0319572 0.0366723 0.0420881 0.0319572 0.0368082 0.0420881 0.047504 0.0366723 0.0420881 0.0462383 0.052219 0.0420881 0.047504 0.052219 0.0581998 0.448052 0.478728 0.455405 0.486205 0.478728 0.509405 0.486205 0.517004 0.455405 0.486205 0.462758 0.493681 0.486205 0.517004 0.493681 0.524603 0.351773 0.382408 0.358491 0.382676 0.382408 0.391236 0.382676 0.398304 0.358491 0.382676 0.36503 0.389335 0.382676 0.398304 0.389335 0.404802 0.36503 0.389335 0.369949 0.39554 0.389335 0.404802 0.39554 0.419756 0.369949 0.39554 0.375094 0.400748 0.39554 0.419756 0.400748 0.427549 0.404802 0.446426 0.419756 0.439544 0.446426 0.468583 0.439544 0.476341 0.419756 0.439544 0.427549 0.44715 0.439544 0.476341 0.44715 0.484099 0.391236 0.430465 0.398304 0.4379 0.430465 0.453067 0.4379 0.460825 0.398304 0.4379 0.404802 0.446426 0.4379 0.460825 0.446426 0.468583 0.427549 0.44715 0.434009 0.4544 0.44715 0.484099 0.4544 0.491857 0.434009 0.4544 0.440568 0.461501 0.4544 0.491857 0.461501 0.499615 0.204881 0.208484 0.196525 0.205347 0.208484 0.212087 0.205347 0.214169 0.196525 0.205347 0.188168 0.20221 0.205347 0.214169 0.20221 0.216251 0.440568 0.461501 0.447354 0.468627 0.461501 0.499615 0.468627 0.507373 0.447354 0.468627 0.454217 0.475788 0.468627 0.507373 0.475788 0.515131 0.477809 0.50882 0.484843 0.516265 0.50882 0.539832 0.516265 0.547688 0.484843 0.516265 0.491877 0.52371 0.516265 0.547688 0.52371 0.555544 0.454217 0.475788 0.461088 0.482973 0.475788 0.515131 0.482973 0.522889 0.461088 0.482973 0.468034 0.490163 0.482973 0.522889 0.490163 0.530647 0.491877 0.52371 0.500616 0.532243 0.52371 0.555544 0.532243 0.56387 0.500616 0.532243 0.509354 0.540775 0.532243 0.56387 0.540775 0.572195 0.468034 0.490163 0.4749 0.497367 0.490163 0.530647 0.497367 0.538405 0.4749 0.497367 0.481843 0.504604 0.497367 0.538405 0.504604 0.546163 0.152774 0.161631 0.151556 0.160521 0.161631 0.170489 0.160521 0.169487 0.151556 0.160521 0.150338 0.159411 0.160521 0.169487 0.159411 0.168485 0.351786 0.358503 0.382419 0.382685 0.358503 0.365042 0.382685 0.389344 0.382419 0.382685 0.391243 0.39831 0.382685 0.389344 0.39831 0.404808 0.365042 0.369959 0.389344 0.395549 0.369959 0.375105 0.395549 0.400756 0.389344 0.395549 0.404808 0.419762 0.395549 0.400756 0.419762 0.427554 0.404808 0.419762 0.446429 0.439547 0.419762 0.427554 0.439547 0.447152 0.446429 0.439547 0.468583 0.476341 0.439547 0.447152 0.476341 0.484099 0.448145 0.455365 0.478806 0.486172 0.455365 0.462585 0.486172 0.493537 0.478806 0.486172 0.509468 0.516979 0.486172 0.493537 0.516979 0.52449 0.391243 0.39831 0.430468 0.437903 0.39831 0.404808 0.437903 0.446429 0.430468 0.437903 0.453067 0.460825 0.437903 0.446429 0.460825 0.468583 0.427554 0.434014 0.447152 0.454403 0.434014 0.440573 0.454403 0.461503 0.447152 0.454403 0.484099 0.491857 0.454403 0.461503 0.491857 0.499615 0.440573 0.447358 0.461503 0.468629 0.447358 0.454221 0.468629 0.47579 0.461503 0.468629 0.499615 0.507373 0.468629 0.47579 0.507373 0.515131 0.462585 0.469188 0.493537 0.500722 0.469188 0.475791 0.500722 0.507906 0.493537 0.500722 0.52449 0.532256 0.500722 0.507906 0.532256 0.540022 0.288796 0.309877 0.291941 0.313718 0.309877 0.330957 0.313718 0.335495 0.291941 0.313718 0.295086 0.317559 0.313718 0.335495 0.317559 0.340033 0.454221 0.461092 0.47579 0.482975 0.461092 0.468037 0.482975 0.490165 0.47579 0.482975 0.515131 0.522889 0.482975 0.490165 0.522889 0.530647 0.468037 0.474905 0.490165 0.49737 0.474905 0.481849 0.49737 0.504608 0.490165 0.49737 0.530647 0.538405 0.49737 0.504608 0.538405 0.546163 0.170489 0.179466 0.169487 0.180458 0.179466 0.188168 0.180458 0.189388 0.169487 0.180458 0.168485 0.178774 0.180458 0.189388 0.178774 0.189757 0.481843 0.504604 0.489061 0.5119 0.504604 0.546163 0.5119 0.553921 0.489061 0.5119 0.496433 0.519213 0.5119 0.553921 0.519213 0.561679 0.295086 0.317559 0.299056 0.322479 0.317559 0.340033 0.322479 0.345903 0.299056 0.322479 0.303026 0.327399 0.322479 0.345903 0.327399 0.351773 0.496433 0.519213 0.502974 0.526548 0.519213 0.561679 0.526548 0.569437 0.502974 0.526548 0.509405 0.533903 0.526548 0.569437 0.533903 0.577195 0.259352 0.270383 0.261179 0.273195 0.270383 0.281415 0.273195 0.28521 0.261179 0.273195 0.263006 0.276006 0.273195 0.28521 0.276006 0.289005 0.509405 0.533903 0.517004 0.54131 0.533903 0.577195 0.54131 0.584953 0.517004 0.54131 0.524603 0.548853 0.54131 0.584953 0.548853 0.592711 0.263006 0.276006 0.26461 0.278538 0.276006 0.289005 0.278538 0.292466 0.26461 0.278538 0.266213 0.28107 0.278538 0.292466 0.28107 0.295926 0.524603 0.548853 0.532348 0.556411 0.548853 0.592711 0.556411 0.600469 0.532348 0.556411 0.539832 0.564017 0.556411 0.600469 0.564017 0.608227 0.288821 0.291964 0.309898 0.313738 0.291964 0.295108 0.313738 0.317578 0.309898 0.313738 0.330975 0.335512 0.313738 0.317578 0.335512 0.340048 0.539832 0.564017 0.547688 0.571661 0.564017 0.608227 0.571661 0.615985 0.547688 0.571661 0.555544 0.579423 0.571661 0.615985 0.579423 0.623743 0.295108 0.299077 0.317578 0.322497 0.299077 0.303046 0.322497 0.327416 0.317578 0.322497 0.340048 0.345917 0.322497 0.327416 0.345917 0.351786 0.555544 0.579423 0.56387 0.587257 0.579423 0.623743 0.5