# vtk DataFile Version 3.0
#This file was generated by the deal.II library on 2015/4/9 at 19:23:45
ASCII
DATASET UNSTRUCTURED_GRID

POINTS 1396 double
-0.5 -0.5 0
-0.25 -0.5 0
-0.5 -0.25 0
-0.25 -0.25 0
-0.25 -0.5 0
0 -0.5 0
-0.25 -0.25 0
0 -0.25 0
-0.5 -0.25 0
-0.25 -0.25 0
-0.5 0 0
-0.25 0 0
-0.25 -0.25 0
0 -0.25 0
-0.25 0 0
0 0 0
0 -0.5 0
0.25 -0.5 0
0 -0.25 0
0.25 -0.25 0
0.25 -0.5 0
0.5 -0.5 0
0.25 -0.25 0
0.5 -0.25 0
0 -0.25 0
0.25 -0.25 0
0 0 0
0.25 0 0
0.25 -0.25 0
0.5 -0.25 0
0.25 0 0
0.5 0 0
-0.5 0 0
-0.25 0 0
-0.5 0.25 0
-0.25 0.25 0
-0.25 0 0
0 0 0
-0.25 0.25 0
0 0.25 0
-0.5 0.25 0
-0.25 0.25 0
-0.5 0.5 0
-0.25 0.5 0
-0.25 0.25 0
0 0.25 0
-0.25 0.5 0
0 0.5 0
0 0 0
0.25 0 0
0 0.25 0
0.25 0.25 0
0.25 0 0
0.5 0 0
0.25 0.25 0
0.5 0.25 0
0 0.25 0
0.25 0.25 0
0 0.5 0
0.25 0.5 0
0.25 0.25 0
0.5 0.25 0
0.25 0.5 0
0.5 0.5 0
0.5 0 0
0.75 0 0
0.5 0.25 0
0.75 0.25 0
0.25 0.5 0
0.5 0.5 0
0.25 0.75 0
0.5 0.75 0
-0.375 -1 0
-0.25 -1 0
-0.375 -0.875 0
-0.25 -0.875 0
-0.375 -0.875 0
-0.25 -0.875 0
-0.375 -0.75 0
-0.25 -0.75 0
-1 -0.375 0
-0.875 -0.375 0
-1 -0.25 0
-0.875 -0.25 0
-0.875 -0.375 0
-0.75 -0.375 0
-0.875 -0.25 0
-0.75 -0.25 0
0 -1 0
0.125 -1 0
0 -0.875 0
0.125 -0.875 0
0 -0.875 0
0.125 -0.875 0
0 -0.75 0
0.125 -0.75 0
0.375 -1 0
0.5 -1 0
0.375 -0.875 0
0.5 -0.875 0
0.375 -0.875 0
0.5 -0.875 0
0.375 -0.75 0
0.5 -0.75 0
0.75 -0.5 0
0.875 -0.5 0
0.75 -0.375 0
0.875 -0.375 0
0.875 -0.5 0
1 -0.5 0
0.875 -0.375 0
1 -0.375 0
0.875 -0.375 0
1 -0.375 0
0.875 -0.25 0
1 -0.25 0
0.5 -0.25 0
0.625 -0.25 0
0.5 -0.125 0
0.625 -0.125 0
0.625 -0.25 0
0.75 -0.25 0
0.625 -0.125 0
0.75 -0.125 0
0.5 -0.125 0
0.625 -0.125 0
0.5 0 0
0.625 0 0
0.625 -0.125 0
0.75 -0.125 0
0.625 0 0
0.75 0 0
0.75 -0.125 0
0.875 -0.125 0
0.75 0 0
0.875 0 0
0.875 -0.125 0
1 -0.125 0
0.875 0 0
1 0 0
-1 0 0
-0.875 0 0
-1 0.125 0
-0.875 0.125 0
-0.875 0 0
-0.75 0 0
-0.875 0.125 0
-0.75 0.125 0
-1 0.375 0
-0.875 0.375 0
-1 0.5 0
-0.875 0.5 0
-0.875 0.375 0
-0.75 0.375 0
-0.875 0.5 0
-0.75 0.5 0
-0.5 0.5 0
-0.375 0.5 0
-0.5 0.625 0
-0.375 0.625 0
-0.375 0.5 0
-0.25 0.5 0
-0.375 0.625 0
-0.25 0.625 0
-0.5 0.625 0
-0.375 0.625 0
-0.5 0.75 0
-0.375 0.75 0
-0.375 0.625 0
-0.25 0.625 0
-0.375 0.75 0
-0.25 0.75 0
-0.25 0.5 0
-0.125 0.5 0
-0.25 0.625 0
-0.125 0.625 0
-0.125 0.5 0
0 0.5 0
-0.125 0.625 0
0 0.625 0
-0.25 0.625 0
-0.125 0.625 0
-0.25 0.75 0
-0.125 0.75 0
-0.125 0.625 0
0 0.625 0
-0.125 0.75 0
0 0.75 0
-0.5 0.75 0
-0.375 0.75 0
-0.5 0.875 0
-0.375 0.875 0
-0.5 0.875 0
-0.375 0.875 0
-0.5 1 0
-0.375 1 0
-0.125 0.75 0
0 0.75 0
-0.125 0.875 0
0 0.875 0
-0.125 0.875 0
0 0.875 0
-0.125 1 0
0 1 0
-0.75 -1 0
-0.625 -1 0
-0.75 -0.875 0
-0.625 -0.875 0
-1 -0.75 0
-0.875 -0.75 0
-1 -0.625 0
-0.875 -0.625 0
-0.625 -0.75 0
-0.5 -0.75 0
-0.625 -0.625 0
-0.5 -0.625 0
-0.75 -0.625 0
-0.625 -0.625 0
-0.75 -0.5 0
-0.625 -0.5 0
-0.625 -0.625 0
-0.5 -0.625 0
-0.625 -0.5 0
-0.5 -0.5 0
0.625 -1 0
0.75 -1 0
0.625 -0.875 0
0.75 -0.875 0
0.5 -0.75 0
0.625 -0.75 0
0.5 -0.625 0
0.625 -0.625 0
0.5 -0.625 0
0.625 -0.625 0
0.5 -0.5 0
0.625 -0.5 0
0.625 -0.625 0
0.75 -0.625 0
0.625 -0.5 0
0.75 -0.5 0
0.875 -0.75 0
1 -0.75 0
0.875 -0.625 0
1 -0.625 0
-1 0.625 0
-0.875 0.625 0
-1 0.75 0
-0.875 0.75 0
-0.75 0.5 0
-0.625 0.5 0
-0.75 0.625 0
-0.625 0.625 0
-0.625 0.5 0
-0.5 0.5 0
-0.625 0.625 0
-0.5 0.625 0
-0.625 0.625 0
-0.5 0.625 0
-0.625 0.75 0
-0.5 0.75 0
-0.75 0.875 0
-0.625 0.875 0
-0.75 1 0
-0.625 1 0
-0.25 -1 0
-0.125 -1 0
-0.25 -0.875 0
-0.125 -0.875 0
-0.125 -1 0
0 -1 0
-0.125 -0.875 0
0 -0.875 0
-0.25 -0.875 0
-0.125 -0.875 0
-0.25 -0.75 0
-0.125 -0.75 0
-0.125 -0.875 0
0 -0.875 0
-0.125 -0.75 0
0 -0.75 0
0.75 0 0
0.875 0 0
0.75 0.125 0
0.875 0.125 0
0.875 0 0
1 0 0
0.875 0.125 0
1 0.125 0
0.75 0.125 0
0.875 0.125 0
0.75 0.25 0
0.875 0.25 0
0.875 0.125 0
1 0.125 0
0.875 0.25 0
1 0.25 0
0.5 0.25 0
0.625 0.25 0
0.5 0.375 0
0.625 0.375 0
0.625 0.25 0
0.75 0.25 0
0.625 0.375 0
0.75 0.375 0
0.5 0.375 0
0.625 0.375 0
0.5 0.5 0
0.625 0.5 0
0.625 0.375 0
0.75 0.375 0
0.625 0.5 0
0.75 0.5 0
0.75 0.375 0
0.875 0.375 0
0.75 0.5 0
0.875 0.5 0
0.875 0.375 0
1 0.375 0
0.875 0.5 0
1 0.5 0
0 0.5 0
0.125 0.5 0
0 0.625 0
0.125 0.625 0
0.125 0.5 0
0.25 0.5 0
0.125 0.625 0
0.25 0.625 0
0 0.625 0
0.125 0.625 0
0 0.75 0
0.125 0.75 0
0.125 0.625 0
0.25 0.625 0
0.125 0.75 0
0.25 0.75 0
-0.5 -0.75 0
-0.375 -0.75 0
-0.5 -0.625 0
-0.375 -0.625 0
-0.375 -0.75 0
-0.25 -0.75 0
-0.375 -0.625 0
-0.25 -0.625 0
-0.5 -0.625 0
-0.375 -0.625 0
-0.5 -0.5 0
-0.375 -0.5 0
-0.375 -0.625 0
-0.25 -0.625 0
-0.375 -0.5 0
-0.25 -0.5 0
0.125 0.75 0
0.25 0.75 0
0.125 0.875 0
0.25 0.875 0
0.125 0.875 0
0.25 0.875 0
0.125 1 0
0.25 1 0
0.5 0.5 0
0.625 0.5 0
0.5 0.625 0
0.625 0.625 0
0.625 0.5 0
0.75 0.5 0
0.625 0.625 0
0.75 0.625 0
0.5 0.625 0
0.625 0.625 0
0.5 0.75 0
0.625 0.75 0
0.875 0.625 0
1 0.625 0
0.875 0.75 0
1 0.75 0
0.5 0.75 0
0.625 0.75 0
0.5 0.875 0
0.625 0.875 0
0.5 0.875 0
0.625 0.875 0
0.5 1 0
0.625 1 0
0.625 0.875 0
0.75 0.875 0
0.625 1 0
0.75 1 0
-0.25 -0.75 0
-0.125 -0.75 0
-0.25 -0.625 0
-0.125 -0.625 0
-0.125 -0.75 0
0 -0.75 0
-0.125 -0.625 0
0 -0.625 0
-0.25 -0.625 0
-0.125 -0.625 0
-0.25 -0.5 0
-0.125 -0.5 0
-0.125 -0.625 0
0 -0.625 0
-0.125 -0.5 0
0 -0.5 0
-0.75 -0.5 0
-0.625 -0.5 0
-0.75 -0.375 0
-0.625 -0.375 0
-0.625 -0.5 0
-0.5 -0.5 0
-0.625 -0.375 0
-0.5 -0.375 0
-0.75 -0.375 0
-0.625 -0.375 0
-0.75 -0.25 0
-0.625 -0.25 0
-0.625 -0.375 0
-0.5 -0.375 0
-0.625 -0.25 0
-0.5 -0.25 0
-1 -0.25 0
-0.875 -0.25 0
-1 -0.125 0
-0.875 -0.125 0
-0.875 -0.25 0
-0.75 -0.25 0
-0.875 -0.125 0
-0.75 -0.125 0
-1 -0.125 0
-0.875 -0.125 0
-1 0 0
-0.875 0 0
-0.875 -0.125 0
-0.75 -0.125 0
-0.875 0 0
-0.75 0 0
-0.75 -0.25 0
-0.625 -0.25 0
-0.75 -0.125 0
-0.625 -0.125 0
-0.625 -0.25 0
-0.5 -0.25 0
-0.625 -0.125 0
-0.5 -0.125 0
-0.75 -0.125 0
-0.625 -0.125 0
-0.75 0 0
-0.625 0 0
-0.625 -0.125 0
-0.5 -0.125 0
-0.625 0 0
-0.5 0 0
0 -0.75 0
0.125 -0.75 0
0 -0.625 0
0.125 -0.625 0
0.125 -0.75 0
0.25 -0.75 0
0.125 -0.625 0
0.25 -0.625 0
0 -0.625 0
0.125 -0.625 0
0 -0.5 0
0.125 -0.5 0
0.125 -0.625 0
0.25 -0.625 0
0.125 -0.5 0
0.25 -0.5 0
0.25 -0.75 0
0.375 -0.75 0
0.25 -0.625 0
0.375 -0.625 0
0.375 -0.75 0
0.5 -0.75 0
0.375 -0.625 0
0.5 -0.625 0
0.25 -0.625 0
0.375 -0.625 0
0.25 -0.5 0
0.375 -0.5 0
0.375 -0.625 0
0.5 -0.625 0
0.375 -0.5 0
0.5 -0.5 0
0.5 -0.5 0
0.625 -0.5 0
0.5 -0.375 0
0.625 -0.375 0
0.625 -0.5 0
0.75 -0.5 0
0.625 -0.375 0
0.75 -0.375 0
0.5 -0.375 0
0.625 -0.375 0
0.5 -0.25 0
0.625 -0.25 0
0.625 -0.375 0
0.75 -0.375 0
0.625 -0.25 0
0.75 -0.25 0
-0.75 0 0
-0.625 0 0
-0.75 0.125 0
-0.625 0.125 0
-0.625 0 0
-0.5 0 0
-0.625 0.125 0
-0.5 0.125 0
-0.75 0.125 0
-0.625 0.125 0
-0.75 0.25 0
-0.625 0.25 0
-0.625 0.125 0
-0.5 0.125 0
-0.625 0.25 0
-0.5 0.25 0
-0.75 0.25 0
-0.625 0.25 0
-0.75 0.375 0
-0.625 0.375 0
-0.625 0.25 0
-0.5 0.25 0
-0.625 0.375 0
-0.5 0.375 0
-0.75 0.375 0
-0.625 0.375 0
-0.75 0.5 0
-0.625 0.5 0
-0.625 0.375 0
-0.5 0.375 0
-0.625 0.5 0
-0.5 0.5 0
-1 -1 0
-0.875 -1 0
-1 -0.875 0
-0.875 -0.875 0
-0.875 -1 0
-0.75 -1 0
-0.875 -0.875 0
-0.75 -0.875 0
-1 -0.875 0
-0.875 -0.875 0
-1 -0.75 0
-0.875 -0.75 0
-0.875 -0.875 0
-0.75 -0.875 0
-0.875 -0.75 0
-0.75 -0.75 0
0.75 -1 0
0.875 -1 0
0.75 -0.875 0
0.875 -0.875 0
0.875 -1 0
1 -1 0
0.875 -0.875 0
1 -0.875 0
0.75 -0.875 0
0.875 -0.875 0
0.75 -0.75 0
0.875 -0.75 0
0.875 -0.875 0
1 -0.875 0
0.875 -0.75 0
1 -0.75 0
-1 0.75 0
-0.875 0.75 0
-1 0.875 0
-0.875 0.875 0
-0.875 0.75 0
-0.75 0.75 0
-0.875 0.875 0
-0.75 0.875 0
-1 0.875 0
-0.875 0.875 0
-1 1 0
-0.875 1 0
-0.875 0.875 0
-0.75 0.875 0
-0.875 1 0
-0.75 1 0
0.25 0.75 0
0.375 0.75 0
0.25 0.875 0
0.375 0.875 0
0.375 0.75 0
0.5 0.75 0
0.375 0.875 0
0.5 0.875 0
0.25 0.875 0
0.375 0.875 0
0.25 1 0
0.375 1 0
0.375 0.875 0
0.5 0.875 0
0.375 1 0
0.5 1 0
0.75 0.75 0
0.875 0.75 0
0.75 0.875 0
0.875 0.875 0
0.875 0.75 0
1 0.75 0
0.875 0.875 0
1 0.875 0
0.75 0.875 0
0.875 0.875 0
0.75 1 0
0.875 1 0
0.875 0.875 0
1 0.875 0
0.875 1 0
1 1 0
-0.5 -1 0
-0.4375 -1 0
-0.5 -0.9375 0
-0.4375 -0.9375 0
-0.4375 -1 0
-0.375 -1 0
-0.4375 -0.9375 0
-0.375 -0.9375 0
-0.5 -0.9375 0
-0.4375 -0.9375 0
-0.5 -0.875 0
-0.4375 -0.875 0
-0.4375 -0.9375 0
-0.375 -0.9375 0
-0.4375 -0.875 0
-0.375 -0.875 0
-0.5 -0.875 0
-0.4375 -0.875 0
-0.5 -0.8125 0
-0.4375 -0.8125 0
-0.4375 -0.875 0
-0.375 -0.875 0
-0.4375 -0.8125 0
-0.375 -0.8125 0
-0.5 -0.8125 0
-0.4375 -0.8125 0
-0.5 -0.75 0
-0.4375 -0.75 0
-0.4375 -0.8125 0
-0.375 -0.8125 0
-0.4375 -0.75 0
-0.375 -0.75 0
-1 -0.5 0
-0.9375 -0.5 0
-1 -0.4375 0
-0.9375 -0.4375 0
-0.9375 -0.5 0
-0.875 -0.5 0
-0.9375 -0.4375 0
-0.875 -0.4375 0
-1 -0.4375 0
-0.9375 -0.4375 0
-1 -0.375 0
-0.9375 -0.375 0
-0.9375 -0.4375 0
-0.875 -0.4375 0
-0.9375 -0.375 0
-0.875 -0.375 0
-0.875 -0.5 0
-0.8125 -0.5 0
-0.875 -0.4375 0
-0.8125 -0.4375 0
-0.8125 -0.5 0
-0.75 -0.5 0
-0.8125 -0.4375 0
-0.75 -0.4375 0
-0.875 -0.4375 0
-0.8125 -0.4375 0
-0.875 -0.375 0
-0.8125 -0.375 0
-0.8125 -0.4375 0
-0.75 -0.4375 0
-0.8125 -0.375 0
-0.75 -0.375 0
0.125 -1 0
0.1875 -1 0
0.125 -0.9375 0
0.1875 -0.9375 0
0.1875 -1 0
0.25 -1 0
0.1875 -0.9375 0
0.25 -0.9375 0
0.125 -0.9375 0
0.1875 -0.9375 0
0.125 -0.875 0
0.1875 -0.875 0
0.1875 -0.9375 0
0.25 -0.9375 0
0.1875 -0.875 0
0.25 -0.875 0
0.125 -0.875 0
0.1875 -0.875 0
0.125 -0.8125 0
0.1875 -0.8125 0
0.1875 -0.875 0
0.25 -0.875 0
0.1875 -0.8125 0
0.25 -0.8125 0
0.125 -0.8125 0
0.1875 -0.8125 0
0.125 -0.75 0
0.1875 -0.75 0
0.1875 -0.8125 0
0.25 -0.8125 0
0.1875 -0.75 0
0.25 -0.75 0
0.25 -1 0
0.3125 -1 0
0.25 -0.9375 0
0.3125 -0.9375 0
0.3125 -1 0
0.375 -1 0
0.3125 -0.9375 0
0.375 -0.9375 0
0.25 -0.9375 0
0.3125 -0.9375 0
0.25 -0.875 0
0.3125 -0.875 0
0.3125 -0.9375 0
0.375 -0.9375 0
0.3125 -0.875 0
0.375 -0.875 0
0.25 -0.875 0
0.3125 -0.875 0
0.25 -0.8125 0
0.3125 -0.8125 0
0.3125 -0.875 0
0.375 -0.875 0
0.3125 -0.8125 0
0.375 -0.8125 0
0.25 -0.8125 0
0.3125 -0.8125 0
0.25 -0.75 0
0.3125 -0.75 0
0.3125 -0.8125 0
0.375 -0.8125 0
0.3125 -0.75 0
0.375 -0.75 0
0.75 -0.375 0
0.8125 -0.375 0
0.75 -0.3125 0
0.8125 -0.3125 0
0.8125 -0.375 0
0.875 -0.375 0
0.8125 -0.3125 0
0.875 -0.3125 0
[...]
POINT_DATA 1396
SCALARS U double 1
LOOKUP_TABLE default
-0.0696437 -0.033455 -0.0334401 0.00443369 -0.033455 -0.0365185 0.00443369 0.00253634 -0.0334401 0.00443369 -0.0365491 0.00257879 0.00443369 0.00253634 0.00257879 5.93081e-05 -0.0365185 -0.0328242 0.00253634 0.00509573 -0.0328242 -0.0678201 0.00509573 -0.0336782 0.00253634 0.00509573 5.93081e-05 0.00459559 0.00509573 -0.0336782 0.00459559 -0.0237512 -0.0365491 0.00257879 -0.0326421 0.00397464 0.00257879 5.93081e-05 0.00397464 0.00309172 -0.0326421 0.00397464 -0.067911 -0.0323974 0.00397464 0.00309172 -0.0323974 -0.0366827 5.93081e-05 0.00459559 0.00309172 0.00928875 0.00459559 -0.0237512 0.00928875 -0.0183676 0.00309172 0.00928875 -0.0366827 -0.0204093 0.00928875 -0.0183676 -0.0204093 -0.0568247 -0.0237512 -0.299806 -0.0183676 -0.297362 -0.0204093 -0.0568247 -0.299331 -0.325429 -1 -1 -0.621829 -0.623642 -0.621829 -0.623642 -0.323693 -0.323457 -1 -0.621829 -1 -0.623642 -0.621829 -0.323693 -0.623642 -0.323459 -1 -1 -0.623292 -0.618288 -0.623292 -0.618288 -0.322759 -0.318266 -1 -1 -0.618497 -0.630257 -0.618497 -0.630257 -0.320107 -0.340013 -0.339898 -0.630113 -0.318647 -0.618217 -0.630113 -1 -0.618217 -1 -0.618217 -1 -0.617707 -1 -0.0336782 -0.130185 -0.0287147 -0.129302 -0.130185 -0.316862 -0.129302 -0.317045 -0.0287147 -0.129302 -0.0237512 -0.161778 -0.129302 -0.317045 -0.161778 -0.299806 -0.317045 -0.613434 -0.299806 -0.6144 -0.613434 -1 -0.6144 -1 -1 -0.623292 -1 -0.61829 -0.623292 -0.322758 -0.61829 -0.318264 -1 -0.618506 -1 -0.630259 -0.618506 -0.320124 -0.630259 -0.340028 -0.067911 -0.0501542 -0.162932 -0.135445 -0.0501542 -0.0323974 -0.135445 -0.130115 -0.162932 -0.135445 -0.339904 -0.319704 -0.135445 -0.130115 -0.319704 -0.318754 -0.0323974 -0.03454 -0.130115 -0.128824 -0.03454 -0.0366827 -0.128824 -0.128669 -0.130115 -0.128824 -0.318754 -0.31488 -0.128824 -0.128669 -0.31488 -0.315217 -0.339904 -0.319704 -0.630175 -0.618121 -0.630175 -0.618121 -1 -1 -0.31488 -0.315217 -0.615284 -0.615723 -0.615284 -0.615723 -1 -1 -1 -1 -0.73659 -0.665833 -1 -0.73659 -1 -0.665833 -0.403743 -0.345203 -0.23891 -0.165522 -0.403743 -0.23891 -0.345202 -0.165521 -0.23891 -0.165522 -0.165521 -0.0696437 -1 -1 -0.665425 -0.736322 -0.340013 -0.402364 -0.16297 -0.236837 -0.16297 -0.236837 -0.0678201 -0.162837 -0.236837 -0.402316 -0.162837 -0.339898 -0.736352 -1 -0.665377 -1 -1 -0.665412 -1 -0.736291 -0.340028 -0.163006 -0.40235 -0.236855 -0.163006 -0.067911 -0.236855 -0.162932 -0.236855 -0.162932 -0.402337 -0.339904 -0.736289 -0.665396 -1 -1 -1 -1 -0.623642 -0.624483 -1 -1 -0.624483 -0.623292 -0.623642 -0.624483 -0.323457 -0.324166 -0.624483 -0.623292 -0.324166 -0.322759 -0.299806 -0.6144 -0.298584 -0.611644 -0.6144 -1 -0.611644 -1 -0.298584 -0.611644 -0.297362 -0.610621 -0.611644 -1 -0.610621 -1 -0.0183676 -0.157865 -0.0375961 -0.131863 -0.157865 -0.297362 -0.131863 -0.319858 -0.0375961 -0.131863 -0.0568247 -0.163408 -0.131863 -0.319858 -0.163408 -0.339622 -0.319858 -0.615609 -0.339622 -0.630033 -0.615609 -1 -0.630033 -1 -0.0366827 -0.028546 -0.128669 -0.128787 -0.028546 -0.0204093 -0.128787 -0.15987 -0.128669 -0.128787 -0.315217 -0.317228 -0.128787 -0.15987 -0.317228 -0.299331 -0.345203 -0.323693 -0.165522 -0.138382 -0.323693 -0.323457 -0.138382 -0.133409 -0.165522 -0.138382 -0.0696437 -0.0515494 -0.138382 -0.133409 -0.0515494 -0.033455 -0.317228 -0.299331 -0.614067 -0.616036 -0.614067 -0.616036 -1 -1 -0.0568247 -0.163408 -0.191127 -0.237907 -0.163408 -0.339622 -0.237907 -0.403524 -0.191127 -0.237907 -0.325429 -0.404731 -0.665784 -1 -0.73679 -1 -0.325429 -0.404731 -0.631126 -0.663441 -0.631126 -0.663441 -1 -1 -0.663441 -0.737155 -1 -1 -0.323457 -0.324166 -0.133409 -0.132691 -0.324166 -0.322759 -0.132691 -0.132196 -0.133409 -0.132691 -0.033455 -0.0349867 -0.132691 -0.132196 -0.0349867 -0.0365185 -0.345202 -0.165521 -0.323693 -0.13838 -0.165521 -0.0696437 -0.13838 -0.0515419 -0.323693 -0.13838 -0.323459 -0.13341 -0.13838 -0.0515419 -0.13341 -0.0334401 -1 -0.623642 -1 -0.624483 -0.623642 -0.323459 -0.624483 -0.324168 -1 -0.624483 -1 -0.623292 -0.624483 -0.324168 -0.623292 -0.322758 -0.323459 -0.13341 -0.324168 -0.132698 -0.13341 -0.0334401 -0.132698 -0.0349946 -0.324168 -0.132698 -0.322758 -0.132193 -0.132698 -0.0349946 -0.132193 -0.0365491 -0.322759 -0.318266 -0.132196 -0.130929 -0.318266 -0.320179 -0.130929 -0.130975 -0.132196 -0.130929 -0.0365185 -0.0346713 -0.130929 -0.130975 -0.0346713 -0.0328242 -0.320179 -0.320107 -0.130975 -0.135766 -0.320107 -0.340013 -0.135766 -0.16297 -0.130975 -0.135766 -0.0328242 -0.0503221 -0.135766 -0.16297 -0.0503221 -0.0678201 -0.0678201 -0.162837 -0.0507491 -0.135498 -0.162837 -0.339898 -0.135498 -0.318647 -0.0507491 -0.135498 -0.0336782 -0.130185 -0.135498 -0.318647 -0.130185 -0.316862 -0.322758 -0.132193 -0.318264 -0.130898 -0.132193 -0.0365491 -0.130898 -0.0345956 -0.318264 -0.130898 -0.320182 -0.130941 -0.130898 -0.0345956 -0.130941 -0.0326421 -0.320182 -0.130941 -0.320124 -0.135768 -0.130941 -0.0326421 -0.135768 -0.0502765 -0.320124 -0.135768 -0.340028 -0.163006 -0.135768 -0.0502765 -0.163006 -0.067911 -1 -1 -1 -0.854985 -1 -1 -0.854985 -0.73659 -1 -0.854985 -1 -0.73659 -0.854985 -0.73659 -0.73659 -0.532004 -1 -1 -0.736322 -0.854951 -1 -1 -0.854951 -1 -0.736322 -0.854951 -0.531208 -0.736352 -0.854951 -1 -0.736352 -1 -1 -0.736291 -1 -0.854932 -0.736291 -0.531171 -0.854932 -0.736289 -1 -0.854932 -1 -1 -0.854932 -0.736289 -1 -1 -0.299331 -0.31238 -0.616036 -0.61675 -0.31238 -0.325429 -0.61675 -0.631126 -0.616036 -0.61675 -1 -1 -0.61675 -0.631126 -1 -1 -0.532841 -0.73679 -0.737155 -0.855563 -0.73679 -1 -0.855563 -1 -0.737155 -0.855563 -1 -1 -0.855563 -1 -1 -1 -1 -1 -0.815162 -0.801788 -1 -1 -0.801788 -0.810914 -0.815162 -0.801788 -0.638245 -0.638077 -0.801788 -0.810914 -0.638077 -0.621829 -0.638245 -0.638077 -0.477001 -0.467119 -0.638077 -0.621829 -0.467119 -0.472761 -0.477001 -0.467119 -0.345203 -0.334448 -0.467119 -0.472761 -0.334448 -0.323693 -1 -0.815162 -1 -0.801788 -0.815162 -0.638245 -0.801788 -0.638077 -1 -0.801788 -1 -0.810914 -0.801788 -0.638077 -0.810914 -0.621829 -0.638245 -0.477001 -0.638077 -0.467119 -0.477001 -0.345202 -0.467119 -0.334448 -0.638077 -0.467119 -0.621829 -0.472761 -0.467119 -0.334448 -0.472761 -0.323693 -1 -1 -0.809144 -0.797767 -1 -1 -0.797767 -0.807802 -0.809144 -0.797767 -0.618288 -0.630258 -0.797767 -0.807802 -0.630258 -0.623391 -0.618288 -0.630258 -0.468277 -0.456526 -0.630258 -0.623391 -0.456526 -0.454473 -0.468277 -0.456526 -0.318266 -0.319222 -0.456526 -0.454473 -0.319222 -0.320179 -1 -1 -0.807802 -0.797591 -1 -1 -0.797591 -0.809248 -0.807802 -0.797591 -0.623391 -0.630014 -0.797591 -0.809248 -0.630014 -0.618497 -0.623391 -0.630014 -0.454473 -0.456436 -0.630014 -0.618497 -0.456436 -0.469302 -0.454473 -0.456436 -0.320179 -0.320143 -0.456436 -0.469302 -0.320143 -0.320107 -0.318647 -0.468432 -0.317754 -0.459457 -0.468432 -0.618217 -0.459457 -0.617962 -0.317754 -0.459457 -0.316862 -0.456021 -0.459457 -0.617962 -0.456021 -0.617707 -0.316862 -0.456021 -0.316954 -0.452483 -0.456021 -0.617707 -0.452483 -0.631857 -0.316954 -0.452483 -0.317045 -0.46524 -0.452483 -0.631857 -0.46524 -0.613434 -0.617707 -0.808853 -0.631857 -0.794354 -0.808853 -1 -0.794354 -1 -0.631857 -0.794354 -0.613434 -0.806717 -0.794354 -1 -0.806717 -1 -1 -0.809145 -1 -0.797768 -0.809145 -0.61829 -0.797768 -0.63026 -1 -0.797768 -1 -0.807805 -0.797768 -0.63026 -0.807805 -0.623396 -0.61829 -0.468277 -0.63026 -0.456531 -0.468277 -0.318264 -0.456531 -0.319223 -0.63026 -0.456531 -0.623396 -0.454482 -0.456531 -0.319223 -0.454482 -0.320182 -1 -0.807805 -1 -0.797595 -0.807805 -0.623396 -0.797595 -0.630022 -1 -0.797595 -1 -0.809253 -0.797595 -0.630022 -0.809253 -0.618506 -0.623396 -0.454482 -0.630022 -0.456446 -0.454482 -0.320182 -0.456446 -0.320153 -0.630022 -0.456446 -0.618506 -0.469315 -0.456446 -0.320153 -0.469315 -0.320124 -0.319704 -0.319229 -0.468913 -0.455649 -0.319229 -0.318754 -0.455649 -0.453147 -0.468913 -0.455649 -0.618121 -0.629356 -0.455649 -0.453147 -0.629356 -0.622304 -0.618121 -0.629356 -0.80906 -0.79722 -0.629356 -0.622304 -0.79722 -0.8072 -0.80906 -0.79722 -1 -1 -0.79722 -0.8072 -1 -1 -0.318754 -0.316817 -0.453147 -0.454104 -0.316817 -0.31488 -0.454104 -0.465082 -0.453147 -0.454104 -0.622304 -0.628472 -0.454104 -0.465082 -0.628472 -0.615284 -0.622304 -0.628472 -0.8072 -0.796763 -0.628472 -0.615284 -0.796763 -0.807642 -0.8072 -0.796763 -1 -1 -0.796763 -0.807642 -1 -1 -1 -1 -0.832917 -0.813156 -1 -1 -0.813156 -0.815162 -0.832917 -0.813156 -0.665833 -0.658181 -0.813156 -0.815162 -0.658181 -0.638245 -0.73659 -0.701212 -0.634297 -0.571766 -0.701212 -0.665833 -0.571766 -0.529849 -0.634297 -0.571766 -0.532004 -0.459614 -0.571766 -0.529849 -0.459614 -0.403743 -0.665833 -0.658181 -0.529849 -0.494097 -0.658181 -0.638245 -0.494097 -0.477001 -0.529849 -0.494097 -0.403743 -0.374473 -0.494097 -0.477001 -0.374473 -0.345203 -0.73659 -0.634297 -0.701212 -0.571766 -0.634297 -0.532004 -0.571766 -0.459614 -0.701212 -0.571766 -0.665833 -0.529849 -0.571766 -0.459614 -0.529849 -0.403743 -1 -0.832917 -1 -0.813156 -0.832917 -0.665833 -0.813156 -0.658181 -1 -0.813156 -1 -0.815162 -0.813156 -0.658181 -0.815162 -0.638245 -0.665833 -0.529849 -0.658181 -0.494097 -0.529849 -0.403743 -0.494097 -0.374473 -0.658181 -0.494097 -0.638245 -0.477001 -0.494097 -0.374473 -0.477001 -0.345202 -0.532004 -0.459614 -0.459614 -0.379503 -0.459614 -0.403743 -0.379503 -0.321326 -0.459614 -0.379503 -0.403743 -0.321326 -0.379503 -0.321326 -0.321326 -0.23891 -1 -1 -0.815129 -0.809155 -1 -1 -0.809155 -0.832712 -0.815129 -0.809155 -0.630257 -0.660474 -0.809155 -0.832712 -0.660474 -0.665425 -0.630257 -0.660474 -0.485135 -0.492515 -0.660474 -0.665425 -0.492515 -0.528291 -0.485135 -0.492515 -0.340013 -0.371188 -0.492515 -0.528291 -0.371188 -0.402364 -0.665425 -0.700874 -0.528291 -0.5713 -0.700874 -0.736322 -0.5713 -0.633765 -0.528291 -0.5713 -0.402364 -0.459188 -0.5713 -0.633765 -0.459188 -0.531208 -0.402364 -0.459188 -0.3196 -0.378601 -0.459188 -0.531208 -0.378601 -0.45921 -0.3196 -0.378601 -0.236837 -0.319577 -0.378601 -0.45921 -0.319577 -0.402316 -0.531208 -0.63378 -0.45921 -0.571329 -0.63378 -0.736352 -0.571329 -0.700864 -0.45921 -0.571329 -0.402316 -0.52825 -0.571329 -0.700864 -0.52825 -0.665377 -0.402316 -0.52825 -0.371107 -0.49245 -0.52825 -0.665377 -0.49245 -0.660516 -0.371107 -0.49245 -0.339898 -0.485005 -0.49245 -0.660516 -0.485005 -0.630113 -0.665377 -0.832689 -0.660516 -0.809166 -0.832689 -1 -0.809166 -1 -0.660516 -0.809166 -0.630113 -0.815056 -0.809166 -1 -0.815056 -1 -1 -0.81513 -1 -0.809153 -0.81513 -0.630259 -0.809153 -0.660472 -1 -0.809153 -1 -0.832706 -0.809153 -0.660472 -0.832706 -0.665412 -0.630259 -0.485144 -0.660472 -0.492508 -0.485144 -0.340028 -0.492508 -0.371189 -0.660472 -0.492508 -0.665412 -0.528275 -0.492508 -0.371189 -0.528275 -0.40235 -0.665412 -0.528275 -0.700851 -0.571271 -0.528275 -0.40235 -0.571271 -0.459161 -0.700851 -0.571271 -0.736291 -0.633731 -0.571271 -0.459161 -0.633731 -0.531171 -0.40235 -0.319603 -0.459161 -0.378571 -0.319603 -0.236855 -0.378571 -0.319596 -0.459161 -0.378571 -0.531171 -0.459155 -0.378571 -0.319596 -0.459155 -0.402337 -0.531171 -0.459155 -0.63373 -0.571263 -0.459155 -0.402337 -0.571263 -0.528252 -0.63373 -0.571263 -0.736289 -0.700842 -0.571263 -0.528252 -0.700842 -0.665396 -0.402337 -0.371121 -0.528252 -0.49246 -0.371121 -0.339904 -0.49246 -0.48504 -0.528252 -0.49246 -0.665396 -0.660434 -0.49246 -0.48504 -0.660434 -0.630175 -0.665396 -0.660434 -0.832698 -0.809132 -0.660434 -0.630175 -0.809132 -0.815087 -0.832698 -0.809132 -1 -1 -0.809132 -0.815087 -1 -1 -0.297362 -0.453992 -0.30861 -0.44917 -0.453992 -0.610621 -0.44917 -0.628853 -0.30861 -0.44917 -0.319858 -0.467734 -0.44917 -0.628853 -0.467734 -0.615609 -0.610621 -0.805311 -0.628853 -0.791891 -0.805311 -1 -0.791891 -1 -0.628853 -0.791891 -0.615609 -0.807805 -0.791891 -1 -0.807805 -1 -0.315217 -0.316222 -0.46547 -0.454594 -0.316222 -0.317228 -0.454594 -0.465647 -0.46547 -0.454594 -0.615723 -0.632126 -0.454594 -0.465647 -0.632126 -0.614067 -0.615723 -0.632126 -0.807862 -0.793145 -0.632126 -0.614067 -0.793145 -0.807033 -0.807862 -0.793145 -1 -1 -0.793145 -0.807033 -1 -1 -0.237907 -0.320716 -0.321319 -0.37958 -0.320716 -0.403524 -0.37958 -0.46046 -0.321319 -0.37958 -0.404731 -0.460019 -0.37958 -0.46046 -0.460019 -0.532841 -0.339622 -0.484827 -0.371573 -0.492413 -0.484827 -0.630033 -0.492413 -0.660579 -0.371573 -0.492413 -0.403524 -0.528521 -0.492413 -0.660579 -0.528521 -0.665784 -0.630033 -0.815017 -0.660579 -0.809186 -0.815017 -1 -0.809186 -1 -0.660579 -0.809186 -0.665784 -0.832892 -0.809186 -1 -0.832892 -1 -0.403524 -0.528521 -0.46046 -0.571941 -0.528521 -0.665784 -0.571941 -0.701287 -0.46046 -0.571941 -0.532841 -0.634815 -0.571941 -0.701287 -0.634815 -0.73679 -0.404731 -0.460019 -0.534086 -0.574165 -0.460019 -0.532841 -0.574165 -0.634998 -0.534086 -0.574165 -0.663441 -0.700298 -0.574165 -0.634998 -0.700298 -0.737155 
