# vtk DataFile Version 3.0
#This file was generated by the deal.II library on 2015/5/12 at 16: 3:47
ASCII
DATASET UNSTRUCTURED_GRID

POINTS 2344 double
0 0 0
5 0 0
0 5 0
5 5 0
5 0 0
10 0 0
5 5 0
10 5 0
0 5 0
5 5 0
0 10 0
5 10 0
5 5 0
10 5 0
5 10 0
10 10 0
0 -5 0
2.5 -5 0
0 -2.5 0
2.5 -2.5 0
2.5 -5 0
5 -5 0
2.5 -2.5 0
5 -2.5 0
0 -2.5 0
2.5 -2.5 0
0 0 0
2.5 0 0
2.5 -2.5 0
5 -2.5 0
2.5 0 0
5 0 0
5 -5 0
7.5 -5 0
5 -2.5 0
7.5 -2.5 0
7.5 -5 0
10 -5 0
7.5 -2.5 0
10 -2.5 0
5 -2.5 0
7.5 -2.5 0
5 0 0
7.5 0 0
7.5 -2.5 0
10 -2.5 0
7.5 0 0
10 0 0
-5 0 0
-2.5 0 0
-5 2.5 0
-2.5 2.5 0
-2.5 0 0
0 0 0
-2.5 2.5 0
0 2.5 0
-5 2.5 0
-2.5 2.5 0
-5 5 0
-2.5 5 0
-2.5 2.5 0
0 2.5 0
-2.5 5 0
0 5 0
-5 -5 0
-2.5 -5 0
-5 -2.5 0
-2.5 -2.5 0
-2.5 -5 0
0 -5 0
-2.5 -2.5 0
0 -2.5 0
-5 -2.5 0
-2.5 -2.5 0
-5 0 0
-2.5 0 0
-2.5 -2.5 0
0 -2.5 0
-2.5 0 0
0 0 0
-5 5 0
-2.5 5 0
-5 7.5 0
-2.5 7.5 0
-2.5 5 0
0 5 0
-2.5 7.5 0
0 7.5 0
-5 7.5 0
-2.5 7.5 0
-5 10 0
-2.5 10 0
-2.5 7.5 0
0 7.5 0
-2.5 10 0
0 10 0
2.5 -7.5 0
3.75 -7.5 0
2.5 -6.25 0
3.75 -6.25 0
3.75 -7.5 0
5 -7.5 0
3.75 -6.25 0
5 -6.25 0
2.5 -6.25 0
3.75 -6.25 0
2.5 -5 0
3.75 -5 0
3.75 -6.25 0
5 -6.25 0
3.75 -5 0
5 -5 0
-7.5 -7.5 0
-6.25 -7.5 0
-7.5 -6.25 0
-6.25 -6.25 0
-6.25 -7.5 0
-5 -7.5 0
-6.25 -6.25 0
-5 -6.25 0
-7.5 -6.25 0
-6.25 -6.25 0
-7.5 -5 0
-6.25 -5 0
-6.25 -6.25 0
-5 -6.25 0
-6.25 -5 0
-5 -5 0
0 -7.5 0
1.25 -7.5 0
0 -6.25 0
1.25 -6.25 0
1.25 -7.5 0
2.5 -7.5 0
1.25 -6.25 0
2.5 -6.25 0
0 -6.25 0
1.25 -6.25 0
0 -5 0
1.25 -5 0
1.25 -6.25 0
2.5 -6.25 0
1.25 -5 0
2.5 -5 0
-7.5 0 0
-6.25 0 0
-7.5 1.25 0
-6.25 1.25 0
-6.25 0 0
-5 0 0
-6.25 1.25 0
-5 1.25 0
-7.5 1.25 0
-6.25 1.25 0
-7.5 2.5 0
-6.25 2.5 0
-6.25 1.25 0
-5 1.25 0
-6.25 2.5 0
-5 2.5 0
-5 -7.5 0
-3.75 -7.5 0
-5 -6.25 0
-3.75 -6.25 0
-3.75 -7.5 0
-2.5 -7.5 0
-3.75 -6.25 0
-2.5 -6.25 0
-5 -6.25 0
-3.75 -6.25 0
-5 -5 0
-3.75 -5 0
-3.75 -6.25 0
-2.5 -6.25 0
-3.75 -5 0
-2.5 -5 0
5 -7.5 0
6.25 -7.5 0
5 -6.25 0
6.25 -6.25 0
6.25 -7.5 0
7.5 -7.5 0
6.25 -6.25 0
7.5 -6.25 0
5 -6.25 0
6.25 -6.25 0
5 -5 0
6.25 -5 0
6.25 -6.25 0
7.5 -6.25 0
6.25 -5 0
7.5 -5 0
-7.5 2.5 0
-6.25 2.5 0
-7.5 3.75 0
-6.25 3.75 0
-6.25 2.5 0
-5 2.5 0
-6.25 3.75 0
-5 3.75 0
-7.5 3.75 0
-6.25 3.75 0
-7.5 5 0
-6.25 5 0
-6.25 3.75 0
-5 3.75 0
-6.25 5 0
-5 5 0
-7.5 -5 0
-6.25 -5 0
-7.5 -3.75 0
-6.25 -3.75 0
-6.25 -5 0
-5 -5 0
-6.25 -3.75 0
-5 -3.75 0
-7.5 -3.75 0
-6.25 -3.75 0
-7.5 -2.5 0
-6.25 -2.5 0
-6.25 -3.75 0
-5 -3.75 0
-6.25 -2.5 0
-5 -2.5 0
-10 6.25 0
-8.75 6.25 0
-10 7.5 0
-8.75 7.5 0
7.5 -10 0
8.75 -10 0
7.5 -8.75 0
8.75 -8.75 0
8.75 -10 0
10 -10 0
8.75 -8.75 0
10 -8.75 0
8.75 -8.75 0
10 -8.75 0
8.75 -7.5 0
10 -7.5 0
-6.25 5 0
-5 5 0
-6.25 6.25 0
-5 6.25 0
-6.25 6.25 0
-5 6.25 0
-6.25 7.5 0
-5 7.5 0
-2.5 -7.5 0
-1.25 -7.5 0
-2.5 -6.25 0
-1.25 -6.25 0
-1.25 -7.5 0
0 -7.5 0
-1.25 -6.25 0
0 -6.25 0
-2.5 -6.25 0
-1.25 -6.25 0
-2.5 -5 0
-1.25 -5 0
-1.25 -6.25 0
0 -6.25 0
-1.25 -5 0
0 -5 0
-7.5 -2.5 0
-6.25 -2.5 0
-7.5 -1.25 0
-6.25 -1.25 0
-6.25 -2.5 0
-5 -2.5 0
-6.25 -1.25 0
-5 -1.25 0
-7.5 -1.25 0
-6.25 -1.25 0
-7.5 0 0
-6.25 0 0
-6.25 -1.25 0
-5 -1.25 0
-6.25 0 0
-5 0 0
-10 7.5 0
-8.75 7.5 0
-10 8.75 0
-8.75 8.75 0
-10 8.75 0
-8.75 8.75 0
-10 10 0
-8.75 10 0
-8.75 8.75 0
-7.5 8.75 0
-8.75 10 0
-7.5 10 0
-6.25 7.5 0
-5 7.5 0
-6.25 8.75 0
-5 8.75 0
-7.5 8.75 0
-6.25 8.75 0
-7.5 10 0
-6.25 10 0
-6.25 8.75 0
-5 8.75 0
-6.25 10 0
-5 10 0
7.5 -7.5 0
8.75 -7.5 0
7.5 -6.25 0
8.75 -6.25 0
8.75 -7.5 0
10 -7.5 0
8.75 -6.25 0
10 -6.25 0
7.5 -6.25 0
8.75 -6.25 0
7.5 -5 0
8.75 -5 0
8.75 -6.25 0
10 -6.25 0
8.75 -5 0
10 -5 0
-6.875 -8.75 0
-6.25 -8.75 0
-6.875 -8.125 0
-6.25 -8.125 0
-7.5 -8.125 0
-6.875 -8.125 0
-7.5 -7.5 0
-6.875 -7.5 0
-6.875 -8.125 0
-6.25 -8.125 0
-6.875 -7.5 0
-6.25 -7.5 0
0 -8.75 0
0.625 -8.75 0
0 -8.125 0
0.625 -8.125 0
0.625 -8.75 0
1.25 -8.75 0
0.625 -8.125 0
1.25 -8.125 0
0 -8.125 0
0.625 -8.125 0
0 -7.5 0
0.625 -7.5 0
0.625 -8.125 0
1.25 -8.125 0
0.625 -7.5 0
1.25 -7.5 0
1.25 -8.75 0
1.875 -8.75 0
1.25 -8.125 0
1.875 -8.125 0
1.875 -8.75 0
2.5 -8.75 0
1.875 -8.125 0
2.5 -8.125 0
1.25 -8.125 0
1.875 -8.125 0
1.25 -7.5 0
1.875 -7.5 0
1.875 -8.125 0
2.5 -8.125 0
1.875 -7.5 0
2.5 -7.5 0
-6.25 -8.75 0
-5.625 -8.75 0
-6.25 -8.125 0
-5.625 -8.125 0
-5.625 -8.75 0
-5 -8.75 0
-5.625 -8.125 0
-5 -8.125 0
-6.25 -8.125 0
-5.625 -8.125 0
-6.25 -7.5 0
-5.625 -7.5 0
-5.625 -8.125 0
-5 -8.125 0
-5.625 -7.5 0
-5 -7.5 0
-8.75 0 0
-8.125 0 0
-8.75 0.625 0
-8.125 0.625 0
-8.125 0 0
-7.5 0 0
-8.125 0.625 0
-7.5 0.625 0
-8.75 0.625 0
-8.125 0.625 0
-8.75 1.25 0
-8.125 1.25 0
-8.125 0.625 0
-7.5 0.625 0
-8.125 1.25 0
-7.5 1.25 0
-8.75 1.25 0
-8.125 1.25 0
-8.75 1.875 0
-8.125 1.875 0
-8.125 1.25 0
-7.5 1.25 0
-8.125 1.875 0
-7.5 1.875 0
-8.125 1.875 0
-7.5 1.875 0
-8.125 2.5 0
-7.5 2.5 0
-8.125 -7.5 0
-7.5 -7.5 0
-8.125 -6.875 0
-7.5 -6.875 0
-8.75 -6.875 0
-8.125 -6.875 0
-8.75 -6.25 0
-8.125 -6.25 0
-8.125 -6.875 0
-7.5 -6.875 0
-8.125 -6.25 0
-7.5 -6.25 0
-8.75 -6.25 0
-8.125 -6.25 0
-8.75 -5.625 0
-8.125 -5.625 0
-8.125 -6.25 0
-7.5 -6.25 0
-8.125 -5.625 0
-7.5 -5.625 0
-8.75 -5.625 0
-8.125 -5.625 0
-8.75 -5 0
-8.125 -5 0
-8.125 -5.625 0
-7.5 -5.625 0
-8.125 -5 0
-7.5 -5 0
-5 -8.75 0
-4.375 -8.75 0
-5 -8.125 0
-4.375 -8.125 0
-4.375 -8.75 0
-3.75 -8.75 0
-4.375 -8.125 0
-3.75 -8.125 0
-5 -8.125 0
-4.375 -8.125 0
-5 -7.5 0
-4.375 -7.5 0
-4.375 -8.125 0
-3.75 -8.125 0
-4.375 -7.5 0
-3.75 -7.5 0
-8.75 -8.75 0
-8.125 -8.75 0
-8.75 -8.125 0
-8.125 -8.125 0
-8.125 -8.125 0
-7.5 -8.125 0
-8.125 -7.5 0
-7.5 -7.5 0
-3.75 -8.75 0
-3.125 -8.75 0
-3.75 -8.125 0
-3.125 -8.125 0
-3.125 -8.75 0
-2.5 -8.75 0
-3.125 -8.125 0
-2.5 -8.125 0
-3.75 -8.125 0
-3.125 -8.125 0
-3.75 -7.5 0
-3.125 -7.5 0
-3.125 -8.125 0
-2.5 -8.125 0
-3.125 -7.5 0
-2.5 -7.5 0
-8.75 2.5 0
-8.125 2.5 0
-8.75 3.125 0
-8.125 3.125 0
-8.125 2.5 0
-7.5 2.5 0
-8.125 3.125 0
-7.5 3.125 0
-8.75 3.125 0
-8.125 3.125 0
-8.75 3.75 0
-8.125 3.75 0
-8.125 3.125 0
-7.5 3.125 0
-8.125 3.75 0
-7.5 3.75 0
-8.75 -5 0
-8.125 -5 0
-8.75 -4.375 0
-8.125 -4.375 0
-8.125 -5 0
-7.5 -5 0
-8.125 -4.375 0
-7.5 -4.375 0
-8.75 -4.375 0
-8.125 -4.375 0
-8.75 -3.75 0
-8.125 -3.75 0
-8.125 -4.375 0
-7.5 -4.375 0
-8.125 -3.75 0
-7.5 -3.75 0
1.875 -10 0
2.5 -10 0
1.875 -9.375 0
2.5 -9.375 0
-10 3.75 0
-9.375 3.75 0
-10 4.375 0
-9.375 4.375 0
-9.375 3.75 0
-8.75 3.75 0
-9.375 4.375 0
-8.75 4.375 0
-10 4.375 0
-9.375 4.375 0
-10 5 0
-9.375 5 0
-8.125 3.75 0
-7.5 3.75 0
-8.125 4.375 0
-7.5 4.375 0
-8.125 4.375 0
-7.5 4.375 0
-8.125 5 0
-7.5 5 0
2.5 -10 0
3.125 -10 0
2.5 -9.375 0
3.125 -9.375 0
2.5 -8.75 0
3.125 -8.75 0
2.5 -8.125 0
3.125 -8.125 0
3.125 -8.75 0
3.75 -8.75 0
3.125 -8.125 0
3.75 -8.125 0
2.5 -8.125 0
3.125 -8.125 0
2.5 -7.5 0
3.125 -7.5 0
3.125 -8.125 0
3.75 -8.125 0
3.125 -7.5 0
3.75 -7.5 0
5 -8.75 0
5.625 -8.75 0
5 -8.125 0
5.625 -8.125 0
5.625 -8.75 0
6.25 -8.75 0
5.625 -8.125 0
6.25 -8.125 0
5 -8.125 0
5.625 -8.125 0
5 -7.5 0
5.625 -7.5 0
5.625 -8.125 0
6.25 -8.125 0
5.625 -7.5 0
6.25 -7.5 0
-10 1.875 0
-9.375 1.875 0
-10 2.5 0
-9.375 2.5 0
5 -10 0
5.625 -10 0
5 -9.375 0
5.625 -9.375 0
5.625 -10 0
6.25 -10 0
5.625 -9.375 0
6.25 -9.375 0
5 -9.375 0
5.625 -9.375 0
5 -8.75 0
5.625 -8.75 0
-10 2.5 0
-9.375 2.5 0
-10 3.125 0
-9.375 3.125 0
-10 3.125 0
-9.375 3.125 0
-10 3.75 0
-9.375 3.75 0
-9.375 3.125 0
-8.75 3.125 0
-9.375 3.75 0
-8.75 3.75 0
-2.5 -8.75 0
-1.875 -8.75 0
-2.5 -8.125 0
-1.875 -8.125 0
-1.875 -8.75 0
-1.25 -8.75 0
-1.875 -8.125 0
-1.25 -8.125 0
-2.5 -8.125 0
-1.875 -8.125 0
-2.5 -7.5 0
-1.875 -7.5 0
-1.875 -8.125 0
-1.25 -8.125 0
-1.875 -7.5 0
-1.25 -7.5 0
-1.25 -8.75 0
-0.625 -8.75 0
-1.25 -8.125 0
-0.625 -8.125 0
-0.625 -8.75 0
0 -8.75 0
-0.625 -8.125 0
0 -8.125 0
-1.25 -8.125 0
-0.625 -8.125 0
-1.25 -7.5 0
-0.625 -7.5 0
-0.625 -8.125 0
0 -8.125 0
-0.625 -7.5 0
0 -7.5 0
-8.75 -3.75 0
-8.125 -3.75 0
-8.75 -3.125 0
-8.125 -3.125 0
-8.125 -3.75 0
-7.5 -3.75 0
-8.125 -3.125 0
-7.5 -3.125 0
-8.75 -3.125 0
-8.125 -3.125 0
-8.75 -2.5 0
-8.125 -2.5 0
-8.125 -3.125 0
-7.5 -3.125 0
-8.125 -2.5 0
-7.5 -2.5 0
-8.75 -2.5 0
-8.125 -2.5 0
-8.75 -1.875 0
-8.125 -1.875 0
-8.125 -2.5 0
-7.5 -2.5 0
-8.125 -1.875 0
-7.5 -1.875 0
-8.75 -1.875 0
-8.125 -1.875 0
-8.75 -1.25 0
-8.125 -1.25 0
-8.125 -1.875 0
-7.5 -1.875 0
-8.125 -1.25 0
-7.5 -1.25 0
-8.75 -1.25 0
-8.125 -1.25 0
-8.75 -0.625 0
-8.125 -0.625 0
-8.125 -1.25 0
-7.5 -1.25 0
-8.125 -0.625 0
-7.5 -0.625 0
-8.75 -0.625 0
-8.125 -0.625 0
-8.75 0 0
-8.125 0 0
-8.125 -0.625 0
-7.5 -0.625 0
-8.125 0 0
-7.5 0 0
3.75 -8.75 0
4.375 -8.75 0
3.75 -8.125 0
4.375 -8.125 0
4.375 -8.75 0
5 -8.75 0
4.375 -8.125 0
5 -8.125 0
3.75 -8.125 0
4.375 -8.125 0
3.75 -7.5 0
4.375 -7.5 0
4.375 -8.125 0
5 -8.125 0
4.375 -7.5 0
5 -7.5 0
-8.75 5 0
-8.125 5 0
-8.75 5.625 0
-8.125 5.625 0
-8.125 5 0
-7.5 5 0
-8.125 5.625 0
-7.5 5.625 0
-8.75 5.625 0
-8.125 5.625 0
-8.75 6.25 0
-8.125 6.25 0
6.875 -8.75 0
7.5 -8.75 0
6.875 -8.125 0
7.5 -8.125 0
6.25 -8.125 0
6.875 -8.125 0
6.25 -7.5 0
6.875 -7.5 0
6.875 -8.125 0
7.5 -8.125 0
6.875 -7.5 0
7.5 -7.5 0
6.25 -10 0
6.875 -10 0
6.25 -9.375 0
6.875 -9.375 0
6.875 -10 0
7.5 -10 0
6.875 -9.375 0
7.5 -9.375 0
6.25 -9.375 0
6.875 -9.375 0
6.25 -8.75 0
6.875 -8.75 0
6.875 -9.375 0
7.5 -9.375 0
6.875 -8.75 0
7.5 -8.75 0
-10 5 0
-9.375 5 0
-10 5.625 0
-9.375 5.625 0
-9.375 5 0
-8.75 5 0
-9.375 5.625 0
-8.75 5.625 0
-10 5.625 0
-9.375 5.625 0
-10 6.25 0
-9.375 6.25 0
-9.375 5.625 0
-8.75 5.625 0
-9.375 6.25 0
-8.75 6.25 0
-7.5 5 0
-6.875 5 0
-7.5 5.625 0
-6.875 5.625 0
-6.875 5 0
-6.25 5 0
-6.875 5.625 0
-6.25 5.625 0
-6.875 5.625 0
-6.25 5.625 0
-6.875 6.25 0
-6.25 6.25 0
-8.75 6.25 0
-8.125 6.25 0
-8.75 6.875 0
-8.125 6.875 0
-8.125 6.25 0
-7.5 6.25 0
-8.125 6.875 0
-7.5 6.875 0
-8.75 6.875 0
-8.125 6.875 0
-8.75 7.5 0
-8.125 7.5 0
-8.125 6.875 0
-7.5 6.875 0
-8.125 7.5 0
-7.5 7.5 0
7.5 -8.75 0
8.125 -8.75 0
7.5 -8.125 0
8.125 -8.125 0
8.125 -8.75 0
8.75 -8.75 0
8.125 -8.125 0
8.75 -8.125 0
7.5 -8.125 0
8.125 -8.125 0
7.5 -7.5 0
8.125 -7.5 0
8.125 -8.125 0
8.75 -8.125 0
8.125 -7.5 0
8.75 -7.5 0
-7.5 6.25 0
-6.875 6.25 0
-7.5 6.875 0
-6.875 6.875 0
-6.875 6.25 0
[...]
POINT_DATA 2344
SCALARS V double 1
LOOKUP_TABLE default
0.0162094 -0.00757461 -0.0251751 0.00690567 -0.00757461 0 0.00690567 0 -0.0251751 0.00690567 0 0 0.00690567 0 0 0 0.00107192 0.0095144 0.00942354 0.00755947 0.0095144 0.02562 0.00755947 0.00537114 0.00942354 0.00755947 0.0162094 0.00431738 0.00755947 0.00537114 0.00431738 -0.00757461 0.02562 -0.00840612 0.00537114 0.00767213 -0.00840612 0 0.00767213 0 0.00537114 0.00767213 -0.00757461 -0.0037873 0.00767213 0 -0.0037873 0 -0.00286532 0.00714074 0.0555751 0.0307181 0.00714074 0.0162094 0.0307181 -0.00448285 0.0555751 0.0307181 0.0988569 0.0519139 0.0307181 -0.00448285 0.0519139 -0.0251751 0.00725456 0.00297734 0.000203503 0.00603682 0.00297734 0.00107192 0.00603682 0.00942354 0.000203503 0.00603682 -0.00286532 0.00714074 0.00603682 0.00942354 0.00714074 0.0162094 0.0988569 0.0519139 0.0449174 0.0276971 0.0519139 -0.0251751 0.0276971 -0.0125875 0.0449174 0.0276971 0 0 0.0276971 -0.0125875 0 0 0.024227 0.157373 0.0170316 0.0867862 0.157373 0.124324 0.0867862 0.141346 0.0170316 0.0867862 0.0095144 0.0175672 0.0867862 0.141346 0.0175672 0.02562 0.00385668 -0.00386074 -0.00425006 -0.00775337 -0.00386074 0.00178261 -0.00775337 -0.000475525 -0.00425006 -0.00775337 0.00109943 -0.000954028 -0.00775337 -0.000475525 -0.000954028 0.00725456 0.0053345 0.00801456 0.00157264 0.00262744 0.00801456 0.024227 0.00262744 0.0170316 0.00157264 0.00262744 0.00107192 0.00529316 0.00262744 0.0170316 0.00529316 0.0095144 -0.011931 -0.00962526 -0.0319337 -0.0148465 -0.00962526 -0.00286532 -0.0148465 0.0263549 -0.0319337 -0.0148465 -0.117569 -0.0247769 -0.0148465 0.0263549 -0.0247769 0.0555751 0.00178261 0.00269057 -0.000475525 -0.00182861 0.00269057 4.81423e-05 -0.00182861 0.000598997 -0.000475525 -0.00182861 0.00725456 0.00511595 -0.00182861 0.000598997 0.00511595 0.00297734 0.124324 -0.18313 0.141346 -0.0460774 -0.18313 -0.350933 -0.0460774 -0.216424 0.141346 -0.0460774 0.02562 0.00860695 -0.0460774 -0.216424 0.00860695 -0.00840612 -0.117569 -0.0247769 -0.434369 -0.160363 -0.0247769 0.0555751 -0.160363 0.077216 -0.434369 -0.160363 -0.522439 -0.314716 -0.160363 0.077216 -0.314716 0.0988569 0.00109943 -0.000954028 0.00341635 -0.00193246 -0.000954028 0.00725456 -0.00193246 0.00372903 0.00341635 -0.00193246 0.00133103 0.00026945 -0.00193246 0.00372903 0.00026945 0.000203503 2.84071 1.10073 2.22316 0.82164 2.22316 1.60562 0.721129 0.716959 1.60562 0.988072 0.716959 0.370527 0.716959 0.370527 -0.170093 0 -0.314716 0.0988569 -0.306289 0.0713765 -0.306289 0.0713765 -0.261531 0.0449174 4.81423e-05 0.00134284 0.000598997 0.00127672 0.00134284 0.0053345 0.00127672 0.00157264 0.000598997 0.00127672 0.00297734 0.00202463 0.00127672 0.00157264 0.00202463 0.00107192 0.00133103 0.00026945 -0.00397407 -0.00417026 0.00026945 0.000203503 -0.00417026 -0.00133091 -0.00397407 -0.00417026 -0.011931 -0.00962526 -0.00417026 -0.00133091 -0.00962526 -0.00286532 2.22316 0.82164 1.60562 0.677048 1.60562 0.677048 0.988072 0.370527 0.677048 -0.231053 0.370527 0 -0.261531 0.0449174 -0.142118 0.0224587 -0.231053 -0.142118 0 0 -0.142118 0.0224587 0 0 -0.350933 -0.170093 -0.216424 -0.118626 -0.170093 0 -0.118626 0 -0.216424 -0.118626 -0.00840612 -0.00420306 -0.118626 0 -0.00420306 0 0.024992 0.0289564 0.00820291 0.0134071 0.00889373 0.00820291 0.00385668 -2.03192e-06 0.00820291 0.0134071 -2.03192e-06 -0.00386074 0.047388 0.0639616 0.00276456 0.00338597 0.0639616 0.0913703 0.00338597 -0.00750297 0.00276456 0.00338597 0.0053345 0.00667453 0.00338597 -0.00750297 0.00667453 0.00801456 0.0913703 0.110032 -0.00750297 -0.0210226 0.110032 0.136138 -0.0210226 -0.00872624 -0.00750297 -0.0210226 0.00801456 0.0161208 -0.0210226 -0.00872624 0.0161208 0.024227 0.0289564 0.0286382 0.0134071 0.013971 0.0286382 0.0265405 0.013971 0.0133605 0.0134071 0.013971 -0.00386074 -0.00103907 0.013971 0.0133605 -0.00103907 0.00178261 0.0481541 -0.00456459 0.0628111 -0.0125502 -0.00456459 -0.011931 -0.0125502 -0.0219324 0.0628111 -0.0125502 0.0873929 -0.0361699 -0.0125502 -0.0219324 -0.0361699 -0.0319337 0.0873929 -0.0361699 0.0857565 -0.0700013 -0.0361699 -0.0319337 -0.0700013 -0.0747514 -0.0700013 -0.0747514 -0.182588 -0.117569 0.00887255 0.00385668 0.00811653 -0.000196692 0.0250032 0.00811653 0.0289786 0.0132313 0.00811653 -0.000196692 0.0132313 -0.00425006 0.0289786 0.0132313 0.0286735 0.0136991 0.0132313 -0.00425006 0.0136991 -0.00157532 0.0286735 0.0136991 0.0265702 0.0131097 0.0136991 -0.00157532 0.0131097 0.00109943 0.0265405 0.0417936 0.0133605 0.0101695 0.0417936 0.0579785 0.0101695 0.00242847 0.0133605 0.0101695 0.00178261 0.00223659 0.0101695 0.00242847 0.00223659 0.00269057 0.0844237 0.0563952 0.0563949 0.0125153 0.0125153 0.00889373 0.00887255 0.00385668 0.0579785 0.0568082 0.00242847 -0.000845042 0.0568082 0.0536852 -0.000845042 -0.00128205 0.00242847 -0.000845042 0.00269057 0.00136936 -0.000845042 -0.00128205 0.00136936 4.81423e-05 -0.0158617 -0.182588 -0.18421 -0.407062 -0.182588 -0.117569 -0.407062 -0.275969 -0.18421 -0.407062 -0.141386 -0.563584 -0.407062 -0.275969 -0.563584 -0.434369 0.0265702 0.0131097 0.0417829 0.0101183 0.0131097 0.00109943 0.0101183 0.00225789 0.0417829 0.0101183 0.0579233 0.0026919 0.0101183 0.00225789 0.0026919 0.00341635 5.00211 4.69334 1.46257 1.39987 4.0758 1.55419 3.76702 1.97375 1.55419 -0.141386 1.97375 0.4789 3.76702 1.97375 3.45825 2.31105 -0.563584 -0.434369 -0.221645 -0.483029 -0.221645 -0.483029 0.206779 -0.522439 4.69334 4.38457 1.39987 1.21701 0.136138 0.108054 -0.00872624 0.0302684 0.108054 0.0298345 0.0302684 0.0475216 -0.00872624 0.0302684 0.024227 0.0907999 0.0302684 0.0475216 0.0907999 0.157373 -0.0563113 -0.126212 -0.127629 -0.26812 -0.126212 -0.116477 -0.26812 -0.338307 -0.127629 -0.26812 0.124324 -0.0294027 -0.26812 -0.338307 -0.0294027 -0.18313 5.00211 1.45136 4.69334 1.34149 3.45825 3.14948 1.24931 1.24455 3.14948 2.84071 1.24455 1.20687 1.24931 1.24455 -0.0563113 -0.126212 4.69334 1.34149 4.38457 1.2865 4.38457 1.2865 4.0758 1.55419 1.2865 -0.18421 1.55419 -0.141386 0.0536852 0.0516008 -0.00128205 -0.000855639 0.0516008 0.0497785 -0.000855639 -8.47844e-05 -0.00128205 -0.000855639 4.81423e-05 0.00069549 -0.000855639 -8.47844e-05 0.00069549 0.00134284 0.0497785 0.0468956 -8.47844e-05 0.00070115 0.0468956 0.047388 0.00070115 0.00276456 -8.47844e-05 0.00070115 0.00134284 0.00333867 0.00070115 0.00276456 0.00333867 0.0053345 0.0579233 0.0026919 0.0566972 -0.000170181 0.0026919 0.00341635 -0.000170181 0.00237369 0.0566972 -0.000170181 0.0535958 -0.000768896 -0.000170181 0.00237369 -0.000768896 0.00133103 0.0535958 -0.000768896 0.0516955 -0.00166683 -0.000768896 0.00133103 -0.00166683 -0.00132152 0.0516955 -0.00166683 0.0501624 -0.00283335 -0.00166683 -0.00132152 -0.00283335 -0.00397407 0.0501624 -0.00283335 0.0475665 -0.00350306 -0.00283335 -0.00397407 -0.00350306 -0.00795253 0.0475665 -0.00350306 0.0481541 -0.00456459 -0.00350306 -0.00795253 -0.00456459 -0.011931 0.0298345 -0.0372282 0.0475216 -0.0236127 -0.0372282 -0.0563113 -0.0236127 -0.127629 0.0475216 -0.0236127 0.157373 0.140849 -0.0236127 -0.127629 0.140849 0.124324 1.16384 0.206779 1.13229 0.270046 0.206779 -0.522439 0.270046 -0.487349 1.13229 0.270046 1.10073 0.291916 0.290438 0.721129 -0.144833 0.185098 -0.338307 -0.144833 -0.18313 -0.267031 -0.144833 0.185098 -0.267031 -0.350933 2.84071 2.53193 1.20687 1.3385 2.53193 2.22316 1.3385 1.47215 1.20687 1.3385 -0.116477 0.290438 1.3385 1.47215 0.290438 0.721129 3.45825 2.31105 3.14948 2.14088 2.31105 1.16384 2.14088 1.13229 3.14948 2.14088 2.84071 1.97072 2.14088 1.13229 1.97072 1.10073 -0.522439 -0.443024 -0.487349 -0.509041 -0.443024 -0.314716 -0.509041 -0.310502 -0.509041 -0.310502 -0.411595 -0.306289 1.10073 0.291916 0.961187 0.236373 0.291916 -0.516901 0.236373 -0.48844 0.961187 0.236373 0.82164 0.180831 0.236373 -0.48844 0.180831 -0.459978 0.721129 0.719044 0.185098 0.229266 0.719044 0.716959 0.229266 0.273433 0.185098 0.229266 -0.350933 -0.260513 0.229266 0.273433 -0.260513 -0.170093 -0.516901 -0.411595 -0.48844 -0.386175 -0.411595 -0.306289 -0.386175 -0.28391 -0.48844 -0.386175 -0.459978 -0.360755 -0.386175 -0.28391 -0.360755 -0.261531 0.82164 0.180831 0.749344 0.201914 0.180831 -0.459978 0.201914 -0.345515 0.749344 0.201914 0.677048 0.222998 0.201914 -0.345515 0.222998 -0.231053 -0.459978 -0.360755 -0.345515 -0.27367 -0.360755 -0.261531 -0.27367 -0.201825 -0.345515 -0.27367 -0.231053 -0.186585 -0.27367 -0.201825 -0.186585 -0.142118 10.8688 10.7144 10.7144 8.24074 10.7144 10.56 8.24074 6.48698 10.7144 8.24074 10.56 6.48698 8.24074 6.48698 6.48698 3.64963 10.56 10.4056 6.48698 5.64767 10.4056 10.2512 5.64767 5.37525 6.48698 5.64767 3.64963 2.34994 5.64767 5.37525 2.34994 2.00162 10.56 6.48698 10.4056 5.64767 6.48698 3.64963 5.64767 2.34994 10.4056 5.64767 10.2512 5.37525 5.64767 2.34994 5.37525 2.00162 3.64963 2.34994 2.34994 0.857999 2.34994 2.00162 0.857999 0.477236 2.34994 0.857999 2.00162 0.477236 0.857999 0.477236 0.477236 0.0844237 10.2512 10.0969 5.37525 5.28546 10.0969 9.94247 5.28546 5.20956 5.37525 5.28546 2.00162 1.95803 5.28546 5.20956 1.95803 1.93674 9.94247 9.78808 5.20956 5.12533 9.78808 9.6337 5.12533 5.04108 5.20956 5.12533 1.93674 1.9 5.12533 5.04108 1.9 1.86152 1.86152 1.82671 0.421027 0.406163 1.82671 1.79525 0.406163 0.396462 0.421027 0.406163 0.0352 0.030096 0.406163 0.396462 0.030096 0.024992 1.79525 1.76567 0.396462 0.390216 1.76567 1.73648 0.390216 0.385131 0.396462 0.390216 0.024992 0.0269742 0.390216 0.385131 0.0269742 0.0289564 10.2512 5.37525 10.0969 5.28546 5.37525 2.00162 5.28546 1.95803 10.0969 5.28546 9.94247 5.20956 5.28546 1.95803 5.20956 1.93674 1.73648 1.70699 0.385131 0.379242 1.70699 1.6771 0.379242 0.372343 0.385131 0.379242 0.0289564 0.0287973 0.379242 0.372343 0.0287973 0.0286382 9.94247 5.20956 9.78808 5.12533 5.20956 1.93674 5.12533 1.9 9.78808 5.12533 9.6337 5.04108 5.12533 1.9 5.04108 1.86152 1.6771 1.6471 0.372343 0.364976 1.6471 1.6186 0.364976 0.360297 0.372343 0.364976 0.0286382 0.0275894 0.364976 0.360297 0.0275894 0.0265405 9.6337 9.47931 5.04108 4.95909 9.47931 9.32493 4.95909 4.87828 5.04108 4.95909 1.86152 1.82671 4.95909 4.87828 1.82671 1.79525 9.32493 9.17054 4.87828 4.7977 9.17054 9.01615 4.7977 4.71704 4.87828 4.7977 1.79525 1.76567 4.7977 4.71704 1.76567 1.73648 1.86152 0.421032 1.82671 0.406175 0.421032 0.0352024 0.406175 0.0301028 1.82671 0.406175 1.79526 0.396483 0.406175 0.0301028 0.396483 0.0250032 1.79526 0.396483 1.76569 0.390246 0.396483 0.0250032 0.390246 0.0269909 1.76569 0.390246 1.7365 0.385171 0.390246 0.0269909 0.385171 0.0289786 9.01615 8.86177 4.71704 4.6363 8.86177 8.70738 4.6363 4.5555 4.71704 4.6363 1.73648 1.70699 4.6363 4.5555 1.70699 1.6771 8.70738 8.553 4.5555 4.47467 8.553 8.39861 4.47467 4.39412 4.5555 4.47467 1.6771 1.6471 4.47467 4.39412 1.6471 1.6186 1.7365 0.385171 1.70702 0.379293 0.385171 0.0289786 0.379293 0.0288261 1.70702 0.379293 1.67714 0.372403 0.379293 0.0288261 0.372403 0.0286735 1.67714 0.372403 1.64713 0.365039 0.372403 0.0286735 0.365039 0.0276219 1.64713 0.365039 1.61864 0.360351 0.365039 0.0276219 0.360351 0.0265702 9.6337 5.04108 9.47931 4.95909 5.04108 1.86152 4.95909 1.82671 9.47931 4.95909 9.32493 4.87828 4.95909 1.82671 4.87828 1.79526 1.6186 1.59459 0.360297 0.362135 1.59459 1.57514 0.362135 0.370348 0.360297 0.362135 0.0265405 0.034167 0.362135 0.370348 0.034167 0.0417936 9.32493 4.87828 9.17054 4.79771 4.87828 1.79526 4.79771 1.76569 9.17054 4.79771 9.01615 4.71705 4.79771 1.76569 4.71705 1.7365 2.00162 1.95803 0.477236 0.451588 1.95803 1.93674 0.451588 0.45498 0.477236 0.451588 0.0844237 0.0589267 0.451588 0.45498 0.0589267 0.0563952 9.01615 4.71705 8.86177 4.6363 4.71705 1.7365 4.6363 1.70702 8.86177 4.6363 8.70738 4.55551 4.6363 1.70702 4.55551 1.67714 1.93674 1.9 0.45498 0.439649 1.9 1.86152 0.439649 0.421027 0.45498 0.439649 0.0563952 0.0457976 0.439649 0.421027 0.0457976 0.0352 8.70738 4.55551 8.553 4.47468 4.55551 1.67714 4.47468 1.64713 8.553 4.47468 8.39861 4.39413 4.47468 1.64713 4.39413 1.61864 2.00162 0.477236 1.95803 0.451588 0.477236 0.0844237 0.451588 0.0589267 1.95803 0.451588 1.93674 0.454981 0.451588 0.0589267 0.454981 0.0563949 8.39861 8.24422 4.39412 4.31464 8.24422 8.08984 4.31464 4.2365 4.39412 4.31464 1.6186 1.59459 4.31464 4.2365 1.59459 1.57514 8.08984 7.93545 4.2365 4.15866 7.93545 7.78106 4.15866 4.07979 4.2365 4.15866 1.57514 1.5555 4.15866 4.07979 1.5555 1.53138 1.93674 0.454981 1.9 0.439651 0.454981 0.0563949 0.439651 0.0457986 1.9 0.439651 1.86152 0.421032 0.439651 0.0457986 0.421032 0.0352024 1.57514 1.5555 0.370348 0.378314 1.5555 1.53138 0.378314 0.379954 0.370348 0.378314 0.0417936 0.049886 0.378314 0.379954 0.049886 0.0579785 7.78106 7.62668 4.07979 3.99951 7.62668 7.47229 3.99951 3.91845 4.07979 3.99951 1.53138 1.50283 3.99951 3.91845 1.50283 1.47228 7.47229 7.31791 3.91845 3.83734 7.31791 7.16352 3.83734 3.7564 3.91845 3.83734 1.47228 1.44157 3.83734 3.7564 1.44157 1.41116 1.53138 1.50283 0.379954 0.375336 1.50283 1.47228 0.375336 0.367549 0.379954 0.375336 0.0579785 0.0573933 0.375336 0.367549 0.0573933 0.0568082 1.47228 1.44157 0.367549 0.359638 1.44157 1.41116 0.359638 0.351994 0.367549 0.359638 0.0568082 0.0552467 0.359638 0.351994 0.0552467 0.0536852 7.16352 7.00913 3.7564 3.67547 7.00913 6.85475 3.67547 3.59448 3.7564 3.67547 1.41116 1.3808 3.67547 3.59448 1.3808 1.35036 6.85475 6.70036 3.59448 3.51354 6.70036 6.54598 3.51354 3.43269 3.59448 3.51354 1.35036 1.31997 3.51354 3.43269 1.31997 1.28972 1.61864 0.360351 1.59461 0.362165 0.360351 0.0265702 0.362165 0.0341765 1.59461 0.362165 1.57514 0.370345 0.362165 0.0341765 0.370345 0.0417829 1.41116 1.3808 0.351994 0.344443 1.3808 1.35036 0.344443 0.336896 0.351994 0.344443 0.0536852 0.052643 0.344443 0.336896 0.052643 0.0516008 6.54598 6.39159 3.43269 3.35133 6.39159 6.2372 3.35133 3.26898 3.43269 3.35133 1.28972 1.2588 3.35133 3.26898 1.2588 1.22662 6.2372 6.08282 3.26898 3.19335 6.08282 5.92843 3.19335 3.14861 3.26898 3.19335 1.22662 1.20189 3.19335 3.14861 1.20189 1.21006 1.35036 1.31997 0.336896 0.329393 1.31997 1.28972 0.329393 0.321969 0.336896 0.329393 0.0516008 0.0506896 0.329393 0.321969 0.0506896 0.0497785 1.28972 1.2588 0.321969 0.314126 1.2588 1.22662 0.314126 0.305461 0.321969 0.314126 0.0497785 0.048337 0.314126 0.305461 0.048337 0.0468956 8.39861 4.39413 8.24422 4.31464 4.39413 1.61864 4.31464 1.59461 8.24422 4.31464 8.08984 4.23649 4.31464 1.59461 4.23649 1.57514 1.22662 1.20189 0.305461 0.300322 1.20189 1.21006 0.300322 0.311886 0.305461 0.300322 0.0468956 0.0471418 0.300322 0.311886 0.0471418 0.047388 8.08984 4.23649 7.93545 4.15865 4.23649 1.57514 4.15865 1.55547 7.93545 4.15865 7.78106 4.07978 4.15865 1.55547 4.07978 1.53133 1.57514 0.370345 1.55547 0.378273 0.370345 0.0417829 0.378273 0.0498531 1.55547 0.378273 1.53133 0.379873 0.378273 0.0498531 0.379873 0.0579233 7.78106 4.07978 7.62668 3.99949 4.07978 1.53133 3.99949 1.50276 7.62668 3.99949 7.47229 3.91842 3.99949 1.50276 3.91842 1.47219 1.53133 0.379873 1.50276 0.375212 0.379873 0.0579233 0.375212 0.0573103 1.50276 0.375212 1.47219 0.367391 0.375212 0.0573103 0.367391 0.0566972 7.47229 3.91842 7.31791 3.83732 3.91842 1.47219 3.83732 1.44148 7.31791 3.83732 7.16352 3.75639 3.83732 1.44148 3.75639 1.4111 1.47219 0.367391 1.44148 0.359468 0.367391 0.0566972 0.359468 0.0551465 1.44148 0.359468 1.4111 0.351871 0.359468 0.0551465 0.351871 0.0535958 7.16352 3.75639 7.00913 3.67547 3.75639 1.4111 3.67547 1.3808 7.00913 3.67547 6.85475 3.5945 3.67547 1.3808 3.5945 1.35045 1.4111 0.351871 1.3808 0.344442 0.351871 0.0535958 0.344442 0.0526456 1.3808 0.344442 1.35045 0.337078 0.344442 0.0526456 0.337078 0.0516955 6.85475 3.5945 6.70036 3.51358 3.5945 1.35045 3.51358 1.32017 6.70036 3.51358 6.54598 3.43275 3.51358 1.32017 3.43275 1.29003 1.35045 0.337078 1.32017 0.329784 0.337078 0.0516955 0.329784 0.050929 1.32017 0.329784 1.29003 0.322578 0.329784 0.050929 0.322578 0.0501624 6.54598 3.43275 6.39159 3.35143 3.43275 1.29003 3.35143 1.25923 6.39159 3.35143 6.2372 3.2691 3.35143 1.25923 3.2691 1.22718 1.29003 0.322578 1.25923 0.314952 0.322578 0.0501624 0.314952 0.0488644 1.25923 0.314952 1.22718 0.306501 0.314952 0.0488644 0.306501 0.0475665 6.2372 3.2691 6.08282 3.1935 3.2691 1.22718 3.1935 1.20256 6.08282 3.1935 5.92843 3.14882 3.1935 1.20256 3.14882 1.21088 1.22718 0.306501 1.20256 0.301596 0.306501 0.0475665 0.301596 0.0478603 1.20256 0.301596 1.21088 0.313314 0.301596 0.0478603 0.313314 0.0481541 5.92843 5.77404 3.14861 3.15261 5.77404 5.61966 3.15261 3.17888 3.14861 3.15261 1.21006 1.26924 3.15261 3.17888 1.26924 1.3523 1.21006 1.26924 0.311886 0.347627 1.26924 1.3523 0.347627 0.397217 0.311886 0.347627 0.047388 0.0556748 0.347627 0.397217 0.0556748 0.0639616 5.31089 5.1565 3.15056 3.10341 5.1565 5.00211 3.10341 3.04308 3.15056 3.10341 1.4472 1.46492 3.10341 3.04308 1.46492 1.46257 5.61966 5.46527 3.17888 3.18115 5.46527 5.31089 3.18115 3.15056 3.17888 3.18115 1.3523 1.41397 3.18115 3.15056 1.41397 1.4472 1.3523 1.41397 0.397217 0.442488 1.41397 1.4472 0.442488 0.480608 0.397217 0.442488 0.0639616 0.077666 0.442488 0.480608 0.077666 0.0913703 1.46257 1.43892 0.523717 0.52844 1.43892 1.39987 0.52844 0.530608 0.523717 0.52844 0.110032 0.123085 0.52844 0.530608 0.123085 0.136138 1.21088 0.313314 1.27022 0.349099 0.313314 0.0481541 0.349099 0.0554826 1.27022 0.349099 1.35344 0.398458 0.349099 0.0554826 0.398458 0.0628111 0.0352 0.030096 0.0220469 0.0193222 0.030096 0.024992 0.0193222 0.0165975 0.0220469 0.0193222 0.00889373 0.00854832 0.0193222 0.0165975 0.00854832 0.00820291 1.4472 1.46492 0.480608 0.510578 1.46492 1.46257 0.510578 0.523717 0.480608 0.510578 0.0913703 0.100701 0.510578 0.523717 0.100701 0.110032 4.38457 4.23018 2.62039 2.46258 4.23018 4.0758 2.46258 2.34261 2.62039 2.46258 1.21701 1.08643 2.46258 2.34261 1.08643 0.993985 5.92843 3.14882 5.77404 3.15293 3.14882 1.21088 3.15293 1.27022 5.77404 3.15293 5.61966 3.17938 3.15293 1.27022 3.17938 1.35344 0.0857565 0.00787758 0.0349474 -0.0456736 0.00787758 -0.0700013 -0.0456736 -0.126295 0.0349474 -0.0456736 -0.0158617 -0.0992248 -0.0456736 -0.126295 -0.0992248 -0.182588 1.21701 1.08643 0.432666 0.33898 1.08643 0.993985 0.33898 0.279134 0.432666 0.33898 0.108054 0.0689441 0.33898 0.279134 0.0689441 0.0298345 5.61966 3.17938 5.46527 3.18194 3.17938 1.35344 3.18194 1.41523 5.46527 3.18194 5.31089 3.15151 3.18194 1.41523 3.15151 1.44834 1.35344 0.398458 1.41523 0.443261 0.398458 0.0628111 0.443261 0.075102 1.41523 0.443261 1.44834 0.479974 0.443261 0.075102 0.479974 0.0873929 5.31089 3.15151 5.1565 3.10345 3.15151 1.44834 3.10345 1.46368 5.1565 3.10345 5.00211 3.03775 3.10345 1.46368 3.03775 1.45136 1.44834 0.479974 1.46368 0.50661 0.479974 0.0873929 0.50661 0.0865747 1.46368 0.50661 1.45136 0.502812 0.50661 0.0865747 0.502812 0.0857565 1.45136 0.502812 1.40408 0.474453 0.502812 0.0857565 0.474453 0.0349474 1.40408 0.474453 1.34149 0.417593 0.474453 0.0349474 0.417593 -0.0158617 0.0352024 0.0220375 0.0301028 0.0192987 0.0220375 0.00887255 0.0192987 0.00849454 0.0301028 0.0192987 0.0250032 0.0165599 0.0192987 0.00849454 0.0165599 0.00811653 0.0563952 0.0457976 0.0344553 0.0282511 0.0457976 0.0352 0.0282511 0.0220469 0.0344553 0.0282511 0.0125153 0.0107045 0.0282511 0.0220469 0.0107045 0.00889373 4.0758 3.92141 2.34261 2.2647 3.92141 3.76702 2.2647 2.38544 2.34261 2.2647 0.993985 0.997262 2.2647 2.38544 0.997262 1.00386 0.0563949 0.0344551 0.0457986 0.0282463 0.0344551 0.0125153 0.0282463 0.0106939 0.0457986 0.0282463 0.0352024 0.0220375 0.0282463 0.0106939 0.0220375 0.00887255 0.993985 0.997262 0.279134 0.250429 0.997262 1.00386 0.250429 0.483316 0.279134 0.250429 0.0298345 -0.00369685 0.250429 0.483316 -0.00369685 -0.0372282 1.97375 1.22632 2.1424 1.48188 1.22632 0.4789 1.48188 0.82137 2.1424 1.48188 2.31105 1.73744 1.48188 0.82137 1.73744 1.16384 1.39987 1.32981 0.530608 0.504951 1.32981 1.21701 0.504951 0.432666 0.530608 0.504951 0.136138 0.122096 0.504951 0.432666 0.122096 0.108054 -0.141386 -0.352485 0.168757 -0.111929 -0.352485 -0.563584 -0.111929 -0