# vtk DataFile Version 3.0
#This file was generated by the deal.II library on 2015/4/22 at 22:35:32
ASCII
DATASET UNSTRUCTURED_GRID

POINTS 5440 double
0.5 0 0
0.625 0 0
0.5 0.125 0
0.625 0.125 0
0 0.5 0
0.125 0.5 0
0 0.625 0
0.125 0.625 0
0 0 0
0.125 0 0
0 0.125 0
0.125 0.125 0
0.125 0 0
0.25 0 0
0.125 0.125 0
0.25 0.125 0
0 0.125 0
0.125 0.125 0
0 0.25 0
0.125 0.25 0
0.125 0.125 0
0.25 0.125 0
0.125 0.25 0
0.25 0.25 0
0.8125 0.25 0
0.875 0.25 0
0.8125 0.3125 0
0.875 0.3125 0
0.75 0.3125 0
0.8125 0.3125 0
0.75 0.375 0
0.8125 0.375 0
0.8125 0.3125 0
0.875 0.3125 0
0.8125 0.375 0
0.875 0.375 0
0.875 0.375 0
0.9375 0.375 0
0.875 0.4375 0
0.9375 0.4375 0
0.3125 0.75 0
0.375 0.75 0
0.3125 0.8125 0
0.375 0.8125 0
0.25 0.8125 0
0.3125 0.8125 0
0.25 0.875 0
0.3125 0.875 0
0.3125 0.8125 0
0.375 0.8125 0
0.3125 0.875 0
0.375 0.875 0
0.375 0.875 0
0.4375 0.875 0
0.375 0.9375 0
0.4375 0.9375 0
0.8125 0.125 0
0.875 0.125 0
0.8125 0.1875 0
0.875 0.1875 0
0.8125 0.1875 0
0.875 0.1875 0
0.8125 0.25 0
0.875 0.25 0
0.75 0.6875 0
0.8125 0.6875 0
0.75 0.75 0
0.8125 0.75 0
0.6875 0.75 0
0.75 0.75 0
0.6875 0.8125 0
0.75 0.8125 0
0.125 0.75 0
0.1875 0.75 0
0.125 0.8125 0
0.1875 0.8125 0
0.125 0.8125 0
0.1875 0.8125 0
0.125 0.875 0
0.1875 0.875 0
0.625 0 0
0.6875 0 0
0.625 0.0625 0
0.6875 0.0625 0
0.625 0.0625 0
0.6875 0.0625 0
0.625 0.125 0
0.6875 0.125 0
0.625 0.125 0
0.6875 0.125 0
0.625 0.1875 0
0.6875 0.1875 0
0.6875 0.125 0
0.75 0.125 0
0.6875 0.1875 0
0.75 0.1875 0
0.625 0.1875 0
0.6875 0.1875 0
0.625 0.25 0
0.6875 0.25 0
0 0.625 0
0.0625 0.625 0
0 0.6875 0
0.0625 0.6875 0
0.0625 0.625 0
0.125 0.625 0
0.0625 0.6875 0
0.125 0.6875 0
0.125 0.625 0
0.1875 0.625 0
0.125 0.6875 0
0.1875 0.6875 0
0.1875 0.625 0
0.25 0.625 0
0.1875 0.6875 0
0.25 0.6875 0
0.125 0.6875 0
0.1875 0.6875 0
0.125 0.75 0
0.1875 0.75 0
0.25 0.25 0
0.3125 0.25 0
0.25 0.3125 0
0.3125 0.3125 0
0.3125 0.25 0
0.375 0.25 0
0.3125 0.3125 0
0.375 0.3125 0
0.25 0.3125 0
0.3125 0.3125 0
0.25 0.375 0
0.3125 0.375 0
0.3125 0.3125 0
0.375 0.3125 0
0.3125 0.375 0
0.375 0.375 0
0.5 0.125 0
0.5625 0.125 0
0.5 0.1875 0
0.5625 0.1875 0
0.5625 0.125 0
0.625 0.125 0
0.5625 0.1875 0
0.625 0.1875 0
0.5 0.1875 0
0.5625 0.1875 0
0.5 0.25 0
0.5625 0.25 0
0.5625 0.1875 0
0.625 0.1875 0
0.5625 0.25 0
0.625 0.25 0
0.125 0.5 0
0.1875 0.5 0
0.125 0.5625 0
0.1875 0.5625 0
0.1875 0.5 0
0.25 0.5 0
0.1875 0.5625 0
0.25 0.5625 0
0.125 0.5625 0
0.1875 0.5625 0
0.125 0.625 0
0.1875 0.625 0
0.1875 0.5625 0
0.25 0.5625 0
0.1875 0.625 0
0.25 0.625 0
0.625 0.3125 0
0.6875 0.3125 0
0.625 0.375 0
0.6875 0.375 0
0.625 0.375 0
0.6875 0.375 0
0.625 0.4375 0
0.6875 0.4375 0
0.6875 0.375 0
0.75 0.375 0
0.6875 0.4375 0
0.75 0.4375 0
0.625 0.4375 0
0.6875 0.4375 0
0.625 0.5 0
0.6875 0.5 0
0.3125 0.625 0
0.375 0.625 0
0.3125 0.6875 0
0.375 0.6875 0
0.375 0.625 0
0.4375 0.625 0
0.375 0.6875 0
0.4375 0.6875 0
0.4375 0.625 0
0.5 0.625 0
0.4375 0.6875 0
0.5 0.6875 0
0.375 0.6875 0
0.4375 0.6875 0
0.375 0.75 0
0.4375 0.75 0
0.625 0.5 0
0.6875 0.5 0
0.625 0.5625 0
0.6875 0.5625 0
0.625 0.5625 0
0.6875 0.5625 0
0.625 0.625 0
0.6875 0.625 0
0.6875 0.5625 0
0.75 0.5625 0
0.6875 0.625 0
0.75 0.625 0
0.5 0.625 0
0.5625 0.625 0
0.5 0.6875 0
0.5625 0.6875 0
0.5625 0.625 0
0.625 0.625 0
0.5625 0.6875 0
0.625 0.6875 0
0.5625 0.6875 0
0.625 0.6875 0
0.5625 0.75 0
0.625 0.75 0
0.25 0 0
0.3125 0 0
0.25 0.0625 0
0.3125 0.0625 0
0.3125 0 0
0.375 0 0
0.3125 0.0625 0
0.375 0.0625 0
0.25 0.0625 0
0.3125 0.0625 0
0.25 0.125 0
0.3125 0.125 0
0.3125 0.0625 0
0.375 0.0625 0
0.3125 0.125 0
0.375 0.125 0
0.4375 0 0
0.5 0 0
0.4375 0.0625 0
0.5 0.0625 0
0.375 0.0625 0
0.4375 0.0625 0
0.375 0.125 0
0.4375 0.125 0
0.4375 0.0625 0
0.5 0.0625 0
0.4375 0.125 0
0.5 0.125 0
0 0.25 0
0.0625 0.25 0
0 0.3125 0
0.0625 0.3125 0
0.0625 0.25 0
0.125 0.25 0
0.0625 0.3125 0
0.125 0.3125 0
0 0.3125 0
0.0625 0.3125 0
0 0.375 0
0.0625 0.375 0
0.0625 0.3125 0
0.125 0.3125 0
0.0625 0.375 0
0.125 0.375 0
0.0625 0.375 0
0.125 0.375 0
0.0625 0.4375 0
0.125 0.4375 0
0 0.4375 0
0.0625 0.4375 0
0 0.5 0
0.0625 0.5 0
0.0625 0.4375 0
0.125 0.4375 0
0.0625 0.5 0
0.125 0.5 0
0.5625 0.5625 0
0.625 0.5625 0
0.5625 0.625 0
0.625 0.625 0
0.25 0.125 0
0.3125 0.125 0
0.25 0.1875 0
0.3125 0.1875 0
0.3125 0.125 0
0.375 0.125 0
0.3125 0.1875 0
0.375 0.1875 0
0.25 0.1875 0
0.3125 0.1875 0
0.25 0.25 0
0.3125 0.25 0
0.3125 0.1875 0
0.375 0.1875 0
0.3125 0.25 0
0.375 0.25 0
0.375 0.25 0
0.4375 0.25 0
0.375 0.3125 0
0.4375 0.3125 0
0.4375 0.25 0
0.5 0.25 0
0.4375 0.3125 0
0.5 0.3125 0
0.375 0.3125 0
0.4375 0.3125 0
0.375 0.375 0
0.4375 0.375 0
0.25 0.375 0
0.3125 0.375 0
0.25 0.4375 0
0.3125 0.4375 0
0.3125 0.375 0
0.375 0.375 0
0.3125 0.4375 0
0.375 0.4375 0
0.25 0.4375 0
0.3125 0.4375 0
0.25 0.5 0
0.3125 0.5 0
0.375 0.375 0
0.4375 0.375 0
0.375 0.4375 0
0.4375 0.4375 0
0.4375 0.375 0
0.5 0.375 0
0.4375 0.4375 0
0.5 0.4375 0
0.375 0.4375 0
0.4375 0.4375 0
0.375 0.5 0
0.4375 0.5 0
0.4375 0.4375 0
0.5 0.4375 0
0.4375 0.5 0
0.5 0.5 0
0.375 0.1875 0
0.4375 0.1875 0
0.375 0.25 0
0.4375 0.25 0
0.4375 0.1875 0
0.5 0.1875 0
0.4375 0.25 0
0.5 0.25 0
0.125 0.25 0
0.1875 0.25 0
0.125 0.3125 0
0.1875 0.3125 0
0.1875 0.25 0
0.25 0.25 0
0.1875 0.3125 0
0.25 0.3125 0
0.125 0.3125 0
0.1875 0.3125 0
0.125 0.375 0
0.1875 0.375 0
0.1875 0.3125 0
0.25 0.3125 0
0.1875 0.375 0
0.25 0.375 0
0.1875 0.375 0
0.25 0.375 0
0.1875 0.4375 0
0.25 0.4375 0
0.1875 0.4375 0
0.25 0.4375 0
0.1875 0.5 0
0.25 0.5 0
0.875 0.3125 0
0.90625 0.3125 0
0.875 0.34375 0
0.90625 0.34375 0
0.90625 0.3125 0
0.9375 0.3125 0
0.90625 0.34375 0
0.9375 0.34375 0
0.875 0.34375 0
0.90625 0.34375 0
0.875 0.375 0
0.90625 0.375 0
0.90625 0.34375 0
0.9375 0.34375 0
0.90625 0.375 0
0.9375 0.375 0
0.75 0.25 0
0.78125 0.25 0
0.75 0.28125 0
0.78125 0.28125 0
0.78125 0.25 0
0.8125 0.25 0
0.78125 0.28125 0
0.8125 0.28125 0
0.75 0.28125 0
0.78125 0.28125 0
0.75 0.3125 0
0.78125 0.3125 0
0.78125 0.28125 0
0.8125 0.28125 0
0.78125 0.3125 0
0.8125 0.3125 0
0.9375 0.375 0
0.96875 0.375 0
0.9375 0.40625 0
0.96875 0.40625 0
0.9375 0.40625 0
0.96875 0.40625 0
0.9375 0.4375 0
0.96875 0.4375 0
0.875 0.4375 0
0.90625 0.4375 0
0.875 0.46875 0
0.90625 0.46875 0
0.90625 0.4375 0
0.9375 0.4375 0
0.90625 0.46875 0
0.9375 0.46875 0
0.875 0.46875 0
0.90625 0.46875 0
0.875 0.5 0
0.90625 0.5 0
0.90625 0.46875 0
0.9375 0.46875 0
0.90625 0.5 0
0.9375 0.5 0
0.9375 0.4375 0
0.96875 0.4375 0
0.9375 0.46875 0
0.96875 0.46875 0
0.3125 0.875 0
0.34375 0.875 0
0.3125 0.90625 0
0.34375 0.90625 0
0.34375 0.875 0
0.375 0.875 0
0.34375 0.90625 0
0.375 0.90625 0
0.3125 0.90625 0
0.34375 0.90625 0
0.3125 0.9375 0
0.34375 0.9375 0
0.34375 0.90625 0
0.375 0.90625 0
0.34375 0.9375 0
0.375 0.9375 0
0.75 0.375 0
0.78125 0.375 0
0.75 0.40625 0
0.78125 0.40625 0
0.78125 0.375 0
0.8125 0.375 0
0.78125 0.40625 0
0.8125 0.40625 0
0.75 0.40625 0
0.78125 0.40625 0
0.75 0.4375 0
0.78125 0.4375 0
0.78125 0.40625 0
0.8125 0.40625 0
0.78125 0.4375 0
0.8125 0.4375 0
0.4375 0.875 0
0.46875 0.875 0
0.4375 0.90625 0
0.46875 0.90625 0
0.46875 0.875 0
0.5 0.875 0
0.46875 0.90625 0
0.5 0.90625 0
0.4375 0.90625 0
0.46875 0.90625 0
0.4375 0.9375 0
0.46875 0.9375 0
0.46875 0.90625 0
0.5 0.90625 0
0.46875 0.9375 0
0.5 0.9375 0
0.375 0.9375 0
0.40625 0.9375 0
0.375 0.96875 0
0.40625 0.96875 0
0.40625 0.9375 0
0.4375 0.9375 0
0.40625 0.96875 0
0.4375 0.96875 0
0.4375 0.9375 0
0.46875 0.9375 0
0.4375 0.96875 0
0.46875 0.96875 0
0.875 0.5 0
0.90625 0.5 0
0.875 0.53125 0
0.90625 0.53125 0
0.90625 0.5 0
0.9375 0.5 0
0.90625 0.53125 0
0.9375 0.53125 0
0.90625 0.53125 0
0.9375 0.53125 0
0.90625 0.5625 0
0.9375 0.5625 0
0.90625 0.5625 0
0.9375 0.5625 0
0.90625 0.59375 0
0.9375 0.59375 0
0.90625 0.59375 0
0.9375 0.59375 0
0.90625 0.625 0
0.9375 0.625 0
0.9375 0.5625 0
0.96875 0.5625 0
0.9375 0.59375 0
0.96875 0.59375 0
0.8125 0 0
0.84375 0 0
0.8125 0.03125 0
0.84375 0.03125 0
0.90625 0.625 0
0.9375 0.625 0
0.90625 0.65625 0
0.9375 0.65625 0
0.75 0.0625 0
0.78125 0.0625 0
0.75 0.09375 0
0.78125 0.09375 0
0.75 0.09375 0
0.78125 0.09375 0
0.75 0.125 0
0.78125 0.125 0
0.78125 0.09375 0
0.8125 0.09375 0
0.78125 0.125 0
0.8125 0.125 0
0.5 0.875 0
0.53125 0.875 0
0.5 0.90625 0
0.53125 0.90625 0
0.5 0.90625 0
0.53125 0.90625 0
0.5 0.9375 0
0.53125 0.9375 0
0.53125 0.90625 0
0.5625 0.90625 0
0.53125 0.9375 0
0.5625 0.9375 0
0.5625 0.90625 0
0.59375 0.90625 0
0.5625 0.9375 0
0.59375 0.9375 0
0.59375 0.90625 0
0.625 0.90625 0
0.59375 0.9375 0
0.625 0.9375 0
0.8125 0.0625 0
0.84375 0.0625 0
0.8125 0.09375 0
0.84375 0.09375 0
0.84375 0.0625 0
0.875 0.0625 0
0.84375 0.09375 0
0.875 0.09375 0
0.8125 0.09375 0
0.84375 0.09375 0
0.8125 0.125 0
0.84375 0.125 0
0.84375 0.09375 0
0.875 0.09375 0
0.84375 0.125 0
0.875 0.125 0
0.875 0.25 0
0.90625 0.25 0
0.875 0.28125 0
0.90625 0.28125 0
0.875 0.28125 0
0.90625 0.28125 0
0.875 0.3125 0
0.90625 0.3125 0
0.875 0.0625 0
0.90625 0.0625 0
0.875 0.09375 0
0.90625 0.09375 0
0.875 0.09375 0
0.90625 0.09375 0
0.875 0.125 0
0.90625 0.125 0
0.25 0.875 0
0.28125 0.875 0
0.25 0.90625 0
0.28125 0.90625 0
0.28125 0.875 0
0.3125 0.875 0
0.28125 0.90625 0
0.3125 0.90625 0
0.875 0.125 0
0.90625 0.125 0
0.875 0.15625 0
0.90625 0.15625 0
0.875 0.15625 0
0.90625 0.15625 0
0.875 0.1875 0
0.90625 0.1875 0
0.875 0.1875 0
0.90625 0.1875 0
0.875 0.21875 0
0.90625 0.21875 0
0.875 0.21875 0
0.90625 0.21875 0
0.875 0.25 0
0.90625 0.25 0
0 0.8125 0
0.03125 0.8125 0
0 0.84375 0
0.03125 0.84375 0
0.03125 0.8125 0
0.0625 0.8125 0
0.03125 0.84375 0
0.0625 0.84375 0
0.0625 0.8125 0
0.09375 0.8125 0
0.0625 0.84375 0
0.09375 0.84375 0
0.09375 0.8125 0
0.125 0.8125 0
0.09375 0.84375 0
0.125 0.84375 0
0.0625 0.84375 0
0.09375 0.84375 0
0.0625 0.875 0
0.09375 0.875 0
0.09375 0.84375 0
0.125 0.84375 0
0.09375 0.875 0
0.125 0.875 0
0.0625 0.875 0
0.09375 0.875 0
0.0625 0.90625 0
0.09375 0.90625 0
0.09375 0.875 0
0.125 0.875 0
0.09375 0.90625 0
0.125 0.90625 0
0.125 0.875 0
0.15625 0.875 0
0.125 0.90625 0
0.15625 0.90625 0
0.15625 0.875 0
0.1875 0.875 0
0.15625 0.90625 0
0.1875 0.90625 0
0.1875 0.875 0
0.21875 0.875 0
[...]
POINT_DATA 5440
SCALARS V double 1
LOOKUP_TABLE default
0.049453 0.111269 0.0488668 0.0987772 0.049453 0.0488828 0.111269 0.0988505 0 0 0 0.00197009 0 0 0.00197009 0.00628387 0 0.00197009 0 0.00628496 0.00197009 0.00628387 0.00628496 0.0103058 0.223236 0.28409 0.233489 0.300795 0.174426 0.233489 0.182131 0.245183 0.233489 0.300795 0.245183 0.318692 0.318692 0.39857 0.338499 0.424104 0.174505 0.182174 0.233577 0.245229 0.223175 0.233577 0.284186 0.300853 0.233577 0.245229 0.300853 0.318728 0.318728 0.338523 0.398588 0.424117 0.211047 0.257892 0.216557 0.270362 0.216557 0.270362 0.223236 0.28409 0.311499 0.380261 0.365785 0.429874 0.311531 0.365785 0.380086 0.429998 0.169136 0.168921 0.21168 0.216555 0.21168 0.216555 0.258404 0.270315 0.111269 0.142177 0.105729 0.13575 0.105729 0.13575 0.0987772 0.132223 0.0987772 0.132223 0.0954864 0.128583 0.132223 0.168541 0.128583 0.168912 0.0954864 0.128583 0.0912986 0.126529 0.111269 0.105773 0.142177 0.135808 0.105773 0.0988505 0.135808 0.132259 0.0988505 0.095557 0.132259 0.128655 0.095557 0.0913536 0.128655 0.126601 0.132259 0.128655 0.169136 0.168921 0.0103058 0.0153251 0.0153275 0.0190562 0.0153251 0.0203445 0.0190562 0.0227849 0.0153275 0.0190562 0.0203492 0.0227872 0.0190562 0.0227849 0.0227872 0.0252252 0.0488668 0.0711215 0.0469374 0.0679964 0.0711215 0.0987772 0.0679964 0.0954864 0.0469374 0.0679964 0.0448522 0.0640345 0.0679964 0.0954864 0.0640345 0.0912986 0.0488828 0.0469577 0.0711563 0.0680366 0.0469577 0.0448691 0.0680366 0.0640665 0.0711563 0.0680366 0.0988505 0.095557 0.0680366 0.0640665 0.095557 0.0913536 0.0909532 0.127517 0.0946629 0.133082 0.0946629 0.133082 0.102231 0.142265 0.133082 0.182131 0.142265 0.194032 0.102231 0.142265 0.115998 0.157491 0.0909902 0.0946857 0.127573 0.133117 0.0946857 0.102246 0.133117 0.142287 0.102246 0.116009 0.142287 0.157509 0.133117 0.142287 0.182174 0.194059 0.115998 0.157491 0.138572 0.180599 0.138572 0.180599 0.171305 0.213249 0.180599 0.235971 0.213249 0.269529 0.116009 0.138579 0.157509 0.180617 0.138579 0.171305 0.180617 0.213263 0.180617 0.213263 0.236002 0.269564 0 0 0.00314193 0.00677347 0 0 0.00677347 0.0129923 0.00314193 0.00677347 0.00628387 0.00963972 0.00677347 0.0129923 0.00963972 0.0183405 0.0185449 0.049453 0.0280375 0.0500169 0.0129923 0.0280375 0.0183405 0.0292446 0.0280375 0.0500169 0.0292446 0.0488668 0 0.00314248 0 0.00677504 0.00314248 0.00628496 0.00677504 0.00964193 0 0.00677504 0 0.0129949 0.00677504 0.00964193 0.0129949 0.018345 0.0129949 0.018345 0.0280424 0.0292521 0.0185449 0.0280424 0.049453 0.0500263 0.0280424 0.0292521 0.0500263 0.0488828 0.105619 0.138572 0.138579 0.171305 0.00628387 0.00963972 0.00883625 0.0123364 0.00963972 0.0183405 0.0123364 0.0207451 0.00883625 0.0123364 0.0103058 0.0153251 0.0123364 0.0207451 0.0153251 0.0203445 0.0203445 0.0294553 0.0227849 0.0312132 0.0294553 0.0448522 0.0312132 0.0441141 0.0227849 0.0312132 0.0252252 0.0338653 0.0203492 0.0227872 0.0294642 0.0312206 0.0227872 0.0252252 0.0312206 0.0338692 0.0294642 0.0312206 0.0448691 0.0441274 0.0252252 0.0338653 0.0338692 0.0419265 0.0338653 0.0463425 0.0419265 0.0537709 0.0338692 0.0419265 0.0463514 0.0537754 0.0419265 0.0537709 0.0537754 0.0657574 0.0207451 0.0300933 0.0203445 0.0294553 0.0300933 0.0469374 0.0294553 0.0448522 0.00628496 0.00883752 0.00964193 0.012339 0.00883752 0.0103058 0.012339 0.0153275 0.00964193 0.012339 0.018345 0.0207509 0.012339 0.0153275 0.0207509 0.0203492 0.0207509 0.0203492 0.030103 0.0294642 0.030103 0.0294642 0.0469577 0.0448691 0.300795 0.335976 0.309208 0.345658 0.335976 0.373491 0.345658 0.387335 0.309208 0.345658 0.318692 0.355896 0.345658 0.387335 0.355896 0.39857 0.170144 0.19669 0.172285 0.200324 0.19669 0.223236 0.200324 0.228362 0.172285 0.200324 0.174426 0.203957 0.200324 0.228362 0.203957 0.233489 0.39857 0.441314 0.411279 0.455048 0.411279 0.455048 0.424104 0.469392 0.338499 0.37905 0.349304 0.391173 0.37905 0.424104 0.391173 0.437215 0.349304 0.391173 0.361547 0.403984 0.391173 0.437215 0.403984 0.45112 0.424104 0.469392 0.437215 0.483919 0.300853 0.309256 0.33602 0.345692 0.309256 0.318728 0.345692 0.355923 0.33602 0.345692 0.373519 0.387357 0.345692 0.355923 0.387357 0.398588 0.182131 0.213657 0.188081 0.220477 0.213657 0.245183 0.220477 0.252874 0.188081 0.220477 0.194032 0.227298 0.220477 0.252874 0.227298 0.260564 0.338523 0.349327 0.37907 0.39119 0.349327 0.361568 0.39119 0.403996 0.37907 0.39119 0.424117 0.437226 0.39119 0.403996 0.437226 0.451124 0.398588 0.411294 0.441323 0.455055 0.411294 0.424117 0.455055 0.469399 0.424117 0.437226 0.469399 0.483924 0.361547 0.403984 0.374699 0.417884 0.403984 0.45112 0.417884 0.465635 0.417884 0.465635 0.434088 0.479645 0.434088 0.479645 0.449561 0.495632 0.449561 0.495632 0.466213 0.512175 0.479645 0.527958 0.495632 0.543848 0.203994 0.219448 0.209492 0.219848 0.466213 0.512175 0.482316 0.528048 0.16921 0.187196 0.171603 0.189933 0.171603 0.189933 0.168541 0.189794 0.189933 0.210429 0.189794 0.211047 0.361568 0.374727 0.403996 0.417892 0.403996 0.417892 0.451124 0.465632 0.417892 0.4341 0.465632 0.479639 0.4341 0.449775 0.479639 0.495415 0.449775 0.464255 0.495415 0.510258 0.204292 0.228515 0.210429 0.230175 0.228515 0.245523 0.230175 0.251092 0.210429 0.230175 0.211047 0.234469 0.230175 0.251092 0.234469 0.257892 0.28409 0.316919 0.292792 0.325928 0.292792 0.325928 0.300795 0.335976 0.245523 0.26634 0.251092 0.274545 0.251092 0.274545 0.257892 0.282188 0.284186 0.292878 0.316978 0.325982 0.292878 0.300853 0.325982 0.33602 0.257892 0.282188 0.264127 0.290686 0.264127 0.290686 0.270362 0.298939 0.270362 0.298939 0.277226 0.307659 0.277226 0.307659 0.28409 0.316919 0.203994 0.20961 0.219448 0.219984 0.20961 0.204142 0.219984 0.228556 0.204142 0.210672 0.228556 0.23013 0.210672 0.21168 0.23013 0.234102 0.228556 0.23013 0.245594 0.251239 0.23013 0.234102 0.251239 0.258404 0.245594 0.251239 0.266404 0.274661 0.251239 0.258404 0.274661 0.28232 0.258404 0.264404 0.28232 0.290826 0.264404 0.270315 0.290826 0.299048 0.270315 0.27725 0.299048 0.307727 0.27725 0.284186 0.307727 0.316978 0.553714 0.586708 0.582989 0.610817 0.553739 0.583002 0.586756 0.610831 0.173086 0.18854 0.172936 0.189552 0.172936 0.189552 0.16921 0.187196 0.189552 0.209492 0.187196 0.204292 0.359275 0.398585 0.380261 0.417324 0.398585 0.438577 0.417324 0.458767 0.380261 0.417324 0.403025 0.440627 0.417324 0.458767 0.440627 0.480564 0.403025 0.440627 0.429874 0.466516 0.440627 0.480564 0.466516 0.501571 0.359328 0.380086 0.398688 0.418793 0.374964 0.398688 0.423248 0.439726 0.398688 0.418793 0.439726 0.459926 0.380086 0.403161 0.418793 0.442899 0.403161 0.429998 0.442899 0.467181 0.173086 0.17318 0.18854 0.189705 0.17318 0.169143 0.189705 0.186743 0.189705 0.186743 0.20961 0.204142 0.171285 0.169136 0.191096 0.189253 0.186743 0.191096 0.204142 0.210672 0.191096 0.189253 0.210672 0.21168 0.429874 0.466516 0.456632 0.494493 0.429998 0.456689 0.467181 0.494556 0.170184 0.172344 0.19668 0.20036 0.172344 0.174505 0.20036 0.204041 0.19668 0.20036 0.223175 0.228376 0.20036 0.204041 0.228376 0.233577 0.142177 0.157631 0.138964 0.15714 0.157631 0.173086 0.15714 0.172936 0.138964 0.15714 0.13575 0.15171 0.15714 0.172936 0.15171 0.16921 0.182174 0.188116 0.213702 0.220514 0.188116 0.194059 0.220514 0.227326 0.213702 0.220514 0.245229 0.252911 0.220514 0.227326 0.252911 0.260593 0.13575 0.15171 0.133987 0.15288 0.15171 0.16921 0.15288 0.171603 0.133987 0.15288 0.132223 0.149089 0.15288 0.171603 0.149089 0.168541 0.168541 0.189794 0.168726 0.191264 0.189794 0.211047 0.191264 0.213802 0.168726 0.191264 0.168912 0.192734 0.191264 0.213802 0.192734 0.216557 0.168912 0.192734 0.169528 0.194712 0.192734 0.216557 0.194712 0.219897 0.169528 0.194712 0.170144 0.19669 0.194712 0.219897 0.19669 0.223236 0.168921 0.169553 0.192738 0.194709 0.169553 0.170184 0.194709 0.19668 0.192738 0.194709 0.216555 0.219865 0.194709 0.19668 0.219865 0.223175 0.142177 0.138993 0.157631 0.157137 0.138993 0.135808 0.157137 0.151851 0.157631 0.157137 0.173086 0.17318 0.157137 0.151851 0.17318 0.169143 0.135808 0.134034 0.151851 0.153043 0.134034 0.132259 0.153043 0.149332 0.151851 0.153043 0.169143 0.171285 0.153043 0.149332 0.171285 0.169136 0.216555 0.219865 0.243435 0.248558 0.219865 0.223175 0.248558 0.253681 0.243435 0.248558 0.270315 0.27725 0.248558 0.253681 0.27725 0.284186 0.128583 0.148747 0.127556 0.148542 0.148747 0.168912 0.148542 0.169528 0.127556 0.148542 0.126529 0.148336 0.148542 0.169528 0.148336 0.170144 0.128655 0.127628 0.148788 0.14859 0.127628 0.126601 0.14859 0.148393 0.148788 0.14859 0.168921 0.169553 0.14859 0.148393 0.169553 0.170184 0.0912986 0.108914 0.0911259 0.109074 0.108914 0.126529 0.109074 0.127023 0.0911259 0.109074 0.0909532 0.109235 0.109074 0.127023 0.109235 0.127517 0.245183 0.278767 0.252874 0.286608 0.278767 0.318692 0.286608 0.328164 0.252874 0.286608 0.260564 0.296141 0.286608 0.328164 0.296141 0.338499 0.194032 0.227298 0.203074 0.234202 0.227298 0.260564 0.234202 0.270643 0.203074 0.234202 0.212116 0.244674 0.234202 0.270643 0.244674 0.281485 0.126529 0.148336 0.127023 0.149654 0.148336 0.170144 0.149654 0.172285 0.127023 0.149654 0.127517 0.150971 0.149654 0.172285 0.150971 0.174426 0.127517 0.150971 0.1303 0.154289 0.150971 0.174426 0.154289 0.178278 0.1303 0.154289 0.133082 0.157607 0.154289 0.178278 0.157607 0.182131 0.142265 0.168148 0.149878 0.176476 0.168148 0.194032 0.176476 0.203074 0.149878 0.176476 0.157491 0.184803 0.176476 0.203074 0.184803 0.212116 0.0913536 0.0911719 0.108977 0.109129 0.0911719 0.0909902 0.109129 0.109282 0.108977 0.109129 0.126601 0.127087 0.109129 0.109282 0.127087 0.127573 0.126601 0.127087 0.148393 0.149716 0.127087 0.127573 0.149716 0.151039 0.148393 0.149716 0.170184 0.172344 0.149716 0.151039 0.172344 0.174505 0.194059 0.2031 0.227326 0.23423 0.2031 0.212141 0.23423 0.244702 0.227326 0.23423 0.260593 0.270671 0.23423 0.244702 0.270671 0.281513 0.245229 0.252911 0.278809 0.286641 0.252911 0.260593 0.286641 0.296169 0.278809 0.286641 0.318728 0.328192 0.286641 0.296169 0.328192 0.338523 0.127573 0.130345 0.151039 0.154342 0.130345 0.133117 0.154342 0.157646 0.151039 0.154342 0.174505 0.178339 0.154342 0.157646 0.178339 0.182174 0.142287 0.149898 0.168173 0.176499 0.149898 0.157509 0.176499 0.184825 0.168173 0.176499 0.194059 0.2031 0.176499 0.184825 0.2031 0.212141 0.157491 0.184803 0.169045 0.196544 0.184803 0.212116 0.196544 0.224043 0.169045 0.196544 0.180599 0.208285 0.196544 0.224043 0.208285 0.235971 0.157509 0.169063 0.184825 0.196567 0.169063 0.180617 0.196567 0.208309 0.184825 0.196567 0.212141 0.224072 0.196567 0.208309 0.224072 0.236002 0.212116 0.244674 0.224043 0.256148 0.244674 0.281485 0.256148 0.293695 0.224043 0.256148 0.235971 0.269648 0.256148 0.293695 0.269648 0.307374 0.235971 0.269648 0.252425 0.284829 0.269648 0.307374 0.284829 0.322786 0.252425 0.284829 0.269529 0.302493 0.284829 0.322786 0.302493 0.340391 0.269529 0.302493 0.28968 0.321951 0.302493 0.340391 0.321951 0.359275 0.28968 0.321951 0.311499 0.344254 0.321951 0.359275 0.344254 0.380261 0.0448522 0.0544433 0.0444831 0.0540827 0.0544433 0.0640345 0.0540827 0.0636823 0.0444831 0.0540827 0.0441141 0.0537221 0.0540827 0.0636823 0.0537221 0.0633302 0.212141 0.224072 0.244702 0.25618 0.224072 0.236002 0.25618 0.269687 0.244702 0.25618 0.281513 0.293729 0.25618 0.269687 0.293729 0.307419 0.236002 0.25246 0.269687 0.284879 0.25246 0.269564 0.284879 0.302549 0.269687 0.284879 0.307419 0.322854 0.284879 0.302549 0.322854 0.340482 0.269564 0.289717 0.302549 0.321985 0.289717 0.311531 0.321985 0.344299 0.302549 0.321985 0.340482 0.359328 0.321985 0.344299 0.359328 0.380086 0.0640345 0.0776665 0.0636823 0.0774041 0.0776665 0.0912986 0.0774041 0.0911259 0.0636823 0.0774041 0.0633302 0.0771417 0.0774041 0.0911259 0.0771417 0.0909532 0.0441141 0.0537221 0.0452283 0.0549572 0.0537221 0.0633302 0.0549572 0.0646862 0.0452283 0.0549572 0.0463425 0.0561923 0.0549572 0.0646862 0.0561923 0.0660422 0.0633302 0.0771417 0.0646862 0.0787471 0.0771417 0.0909532 0.0787471 0.092808 0.0646862 0.0787471 0.0660422 0.0803525 0.0787471 0.092808 0.0803525 0.0946629 0.0463425 0.0561923 0.0500567 0.0597452 0.0561923 0.0660422 0.0597452 0.0694337 0.0500567 0.0597452 0.0537709 0.063298 0.0597452 0.0694337 0.063298 0.0728251 0.0660422 0.0803525 0.0694337 0.0839402 0.0803525 0.0946629 0.0839402 0.0984468 0.0694337 0.0839402 0.0728251 0.0875279 0.0839402 0.0984468 0.0875279 0.102231 0.365785 0.395656 0.395699 0.423475 0.395656 0.429874 0.423475 0.456632 0.395699 0.423475 0.429998 0.456689 0.423475 0.456632 0.456689 0.488047 0.0537709 0.063298 0.0597642 0.0694205 0.063298 0.0728251 0.0694205 0.0790769 0.0597642 0.0694205 0.0657574 0.0755431 0.0694205 0.0790769 0.0755431 0.0853287 0.0728251 0.0875279 0.0790769 0.0940957 0.0875279 0.102231 0.0940957 0.109115 0.0790769 0.0940957 0.0853287 0.100664 0.0940957 0.109115 0.100664 0.115998 0.0448691 0.0444983 0.0544678 0.0541041 0.0444983 0.0441274 0.0541041 0.0537404 0.0544678 0.0541041 0.0640665 0.0637099 0.0541041 0.0537404 0.0637099 0.0633533 0.0441274 0.0452394 0.0537404 0.0549724 0.0452394 0.0463514 0.0549724 0.0562044 0.0537404 0.0549724 0.0633533 0.0647053 0.0549724 0.0562044 0.0647053 0.0660574 0.0640665 0.0637099 0.07771 0.0774409 0.0637099 0.0633533 0.0774409 0.0771717 0.07771 0.0774409 0.0913536 0.0911719 0.0774409 0.0771717 0.0911719 0.0909902 0.0633533 0.0647053 0.0771717 0.0787716 0.0647053 0.0660574 0.0787716 0.0803715 0.0771717 0.0787716 0.0909902 0.0928379 0.0787716 0.0803715 0.0928379 0.0946857 0.0463514 0.0500634 0.0562044 0.0597546 0.0500634 0.0537754 0.0597546 0.0633049 0.0562044 0.0597546 0.0660574 0.0694459 0.0597546 0.0633049 0.0694459 0.0728344 0.0537754 0.0597664 0.0633049 0.0694251 0.0597664 0.0657574 0.0694251 0.0755454 0.0633049 0.0694251 0.0728344 0.0790839 0.0694251 0.0755454 0.0790839 0.0853333 0.0660574 0.0694459 0.0803715 0.0839558 0.0694459 0.0728344 0.0839558 0.08754 0.0803715 0.0839558 0.0946857 0.0984657 0.0839558 0.08754 0.0984657 0.102246 0.0728344 0.0790839 0.08754 0.0941055 0.0790839 0.0853333 0.0941055 0.100671 0.08754 0.0941055 0.102246 0.109127 0.0941055 0.100671 0.109127 0.116009 0.0657574 0.0755431 0.0755454 0.0855095 0.0755431 0.0853287 0.0855095 0.0954737 0.0755454 0.0855095 0.0853333 0.095476 0.0855095 0.0954737 0.095476 0.105619 0.0312132 0.0376636 0.0325392 0.0388838 0.0376636 0.0441141 0.0388838 0.0452283 0.0325392 0.0388838 0.0338653 0.0401039 0.0388838 0.0452283 0.0401039 0.0463425 0.0312206 0.0325449 0.037674 0.0388922 0.0325449 0.0338692 0.0388922 0.0401103 0.037674 0.0388922 0.0441274 0.0452394 0.0388922 0.0401103 0.0452394 0.0463514 0.0183405 0.0237925 0.0195428 0.0246058 0.0237925 0.0292446 0.0246058 0.0296689 0.0195428 0.0246058 0.0207451 0.0254192 0.0246058 0.0296689 0.0254192 0.0300933 0.0292446 0.0390557 0.0296689 0.0387855 0.0390557 0.0488668 0.0387855 0.0479021 0.0296689 0.0387855 0.0300933 0.0385153 0.0387855 0.0479021 0.0385153 0.0469374 0.018345 0.019548 0.0237986 0.0246127 0.019548 0.0207509 0.0246127 0.0254269 0.0237986 0.0246127 0.0292521 0.0296775 0.0246127 0.0254269 0.0296775 0.030103 0.0292521 0.0296775 0.0390674 0.0387989 0.0296775 0.030103 0.0387989 0.0385303 0.0390674 0.0387989 0.0488828 0.0479202 0.0387989 0.0385303 0.0479202 0.0469577 0.0853287 0.100664 0.0954737 0.110452 0.100664 0.115998 0.110452 0.125462 0.0954737 0.110452 0.105619 0.121475 0.110452 0.125462 0.121475 0.138572 0.0853333 0.095476 0.100671 0.110457 0.095476 0.105619 0.110457 0.121478 0.100671 0.110457 0.116009 0.125471 0.110457 0.121478 0.125471 0.138579 0.171305 0.189566 0.189572 0.210779 0.189566 0.213249 0.210779 0.232205 0.189572 0.210779 0.213263 0.232215 0.213249 0.239835 0.232205 0.260319 0.239835 0.269529 0.260319 0.28968 0.232205 0.260319 0.254569 0.282801 0.260319 0.28968 0.282801 0.311499 0.213263 0.232215 0.23986 0.260341 0.232215 0.254569 0.260341 0.282815 0.23986 0.260341 0.269564 0.289717 0.260341 0.282815 0.289717 0.311531 0.254569 0.282801 0.282815 0.310095 0.282801 0.311499 0.310095 0.338112 0.282815 0.310095 0.311531 0.338136 0.310095 0.338112 0.338136 0.365785 0 0.00309081 0.00906581 0.0122507 0.00309081 0.0185449 0.0122507 0.0247644 0.00906581 0.0122507 0.0129923 0.0184772 0.0122507 0.0247644 0.0184772 0.0280375 0 0.00906722 0.00309081 0.0122525 0.00906722 0.0129949 0.0122525 0.0184807 0.00309081 0.0122525 0.0185449 0.024767 0.0122525 0.0184807 0.024767 0.0280424 0.209492 0.21467 0.206892 0.215537 0.21467 0.219848 0.215537 0.224182 0.206892 0.215537 0.204292 0.216404 0.215537 0.224182 0.216404 0.228515 0.373491 0.398993 0.380413 0.400539 0.398993 0.404835 0.400539 0.41244 0.380413 0.400539 0.387335 0.407513 0.400539 0.41244 0.407513 0.419171 0.387335 0.407513 0.392952 0.41363 0.407513 0.419171 0.41363 0.433672 0.392952 0.41363 0.39857 0.419631 0.41363 0.433672 0.419631 0.441314 0.419171 0.452295 0.433672 0.447526 0.452295 0.466713 0.447526 0.47444 0.433672 0.447526 0.441314 0.455733 0.447526 0.47444 0.455733 0.482167 0.404835 0.435766 0.41244 0.443259 0.435766 0.451259 0.443259 0.458986 0.41244 0.443259 0.419171 0.452295 0.443259 0.458986 0.452295 0.466713 0.441314 0.455733 0.448133 0.463105 0.455733 0.482167 0.463105 0.489894 0.448133 0.463105 0.455048 0.470396 0.463105 0.489894 0.470396 0.497621 0.438577 0.460446 0.448672 0.469812 0.460446 0.482316 0.469812 0.490953 0.448672 0.469812 0.458767 0.479179 0.469812 0.490953 0.479179 0.499591 0.455048 0.470396 0.462174 0.477714 0.470396 0.497621 0.477714 0.505348 0.462174 0.477714 0.469392 0.485061 0.477714 0.505348 0.485061 0.513075 0.512175 0.535354 0.519919 0.543632 0.535354 0.559893 0.543632 0.567939 0.519919 0.543632 0.528048 0.551533 0.543632 0.567939 0.551533 0.576098 0.469392 0.485061 0.476601 0.492437 0.485061 0.513075 0.492437 0.520802 0.476601 0.492437 0.483919 0.499835 0.492437 0.520802 0.499835 0.528529 0.528048 0.551533 0.535829 0.560232 0.551533 0.576098 0.560232 0.584521 0.535829 0.560232 0.544691 0.568352 0.560232 0.584521 0.568352 0.593022 0.483919 0.499835 0.49122 0.507255 0.499835 0.528529 0.507255 0.536256 0.49122 0.507255 0.498491 0.514699 0.507255 0.536256 0.514699 0.543983 0.187196 0.195744 0.188565 0.197963 0.195744 0.204292 0.197963 0.20736 0.188565 0.197963 0.189933 0.200181 0.197963 0.20736 0.200181 0.210429 0.373519 0.380438 0.399013 0.400557 0.380438 0.387357 0.400557 0.40753 0.399013 0.400557 0.404848 0.412452 0.400557 0.40753 0.412452 0.419182 0.387357 0.392973 0.40753 0.413645 0.392973 0.398588 0.413645 0.419645 0.40753 0.413645 0.419182 0.433682 0.413645 0.419645 0.433682 0.441323 0.419182 0.433682 0.4523 0.447531 0.433682 0.441323 0.447531 0.455738 0.4523 0.447531 0.466713 0.47444 0.447531 0.455738 0.47444 0.482167 0.437215 0.460239 0.444168 0.46699 0.460239 0.483919 0.46699 0.49122 0.444168 0.46699 0.45112 0.474129 0.46699 0.49122 0.474129 0.498491 0.404848 0.412452 0.435772 0.443265 0.412452 0.419182 0.443265 0.4523 0.435772 0.443265 0.451259 0.458986 0.443265 0.4523 0.458986 0.466713 0.441323 0.448141 0.455738 0.463109 0.448141 0.455055 0.463109 0.470399 0.455738 0.463109 0.482167 0.489894 0.463109 0.470399 0.489894 0.497621 0.455055 0.462181 0.470399 0.477717 0.462181 0.469399 0.477717 0.485064 0.470399 0.477717 0.497621 0.505348 0.477717 0.485064 0.505348 0.513075 0.495415 0.503049 0.51955 0.527236 0.503049 0.510258 0.527236 0.534708 0.51955 0.527236 0.543686 0.551959 0.527236 0.534708 0.551959 0.560221 0.479639 0.487527 0.503781 0.511666 0.487527 0.495415 0.511666 0.51955 0.503781 0.511666 0.527922 0.535804 0.511666 0.51955 0.535804 0.543686 0.469399 0.476607 0.485064 0.49244 0.476607 0.483924 0.49244 0.499838 0.485064 0.49244 0.513075 0.520802 0.49244 0.499838 0.520802 0.528529 0.483924 0.491222 0.499838 0.507256 0.491222 0.498491 0.507256 0.514698 0.499838 0.507256 0.528529 0.536256 0.507256 0.514698 0.536256 0.543983 0.316919 0.333372 0.321423 0.338328 0.333372 0.349826 0.338328 0.355233 0.321423 0.338328 0.325928 0.343284 0.338328 0.355233 0.343284 0.36064 0.498491 0.514699 0.50603 0.52