# vtk DataFile Version 3.0
#This file was generated by the deal.II library on 2015/5/12 at 16: 3:46
ASCII
DATASET UNSTRUCTURED_GRID

POINTS 1420 double
-5 -5 0
0 -5 0
-5 0 0
0 0 0
0 0 0
5 0 0
0 5 0
5 5 0
5 0 0
10 0 0
5 5 0
10 5 0
0 5 0
5 5 0
0 10 0
5 10 0
5 5 0
10 5 0
5 10 0
10 10 0
-7.5 -7.5 0
-5 -7.5 0
-7.5 -5 0
-5 -5 0
-5 -7.5 0
-2.5 -7.5 0
-5 -5 0
-2.5 -5 0
-2.5 -7.5 0
0 -7.5 0
-2.5 -5 0
0 -5 0
-7.5 -5 0
-5 -5 0
-7.5 -2.5 0
-5 -2.5 0
-7.5 -2.5 0
-5 -2.5 0
-7.5 0 0
-5 0 0
0 -5 0
2.5 -5 0
0 -2.5 0
2.5 -2.5 0
2.5 -5 0
5 -5 0
2.5 -2.5 0
5 -2.5 0
0 -2.5 0
2.5 -2.5 0
0 0 0
2.5 0 0
2.5 -2.5 0
5 -2.5 0
2.5 0 0
5 0 0
5 -5 0
7.5 -5 0
5 -2.5 0
7.5 -2.5 0
7.5 -5 0
10 -5 0
7.5 -2.5 0
10 -2.5 0
5 -2.5 0
7.5 -2.5 0
5 0 0
7.5 0 0
7.5 -2.5 0
10 -2.5 0
7.5 0 0
10 0 0
-5 0 0
-2.5 0 0
-5 2.5 0
-2.5 2.5 0
-2.5 0 0
0 0 0
-2.5 2.5 0
0 2.5 0
-5 2.5 0
-2.5 2.5 0
-5 5 0
-2.5 5 0
-2.5 2.5 0
0 2.5 0
-2.5 5 0
0 5 0
7.5 -10 0
10 -10 0
7.5 -7.5 0
10 -7.5 0
7.5 -7.5 0
10 -7.5 0
7.5 -5 0
10 -5 0
-10 7.5 0
-7.5 7.5 0
-10 10 0
-7.5 10 0
-7.5 7.5 0
-5 7.5 0
-7.5 10 0
-5 10 0
-5 5 0
-2.5 5 0
-5 7.5 0
-2.5 7.5 0
-2.5 5 0
0 5 0
-2.5 7.5 0
0 7.5 0
-5 7.5 0
-2.5 7.5 0
-5 10 0
-2.5 10 0
-2.5 7.5 0
0 7.5 0
-2.5 10 0
0 10 0
-7.5 -8.75 0
-6.25 -8.75 0
-7.5 -7.5 0
-6.25 -7.5 0
-6.25 -8.75 0
-5 -8.75 0
-6.25 -7.5 0
-5 -7.5 0
-8.75 -7.5 0
-7.5 -7.5 0
-8.75 -6.25 0
-7.5 -6.25 0
-8.75 -6.25 0
-7.5 -6.25 0
-8.75 -5 0
-7.5 -5 0
2.5 -7.5 0
3.75 -7.5 0
2.5 -6.25 0
3.75 -6.25 0
3.75 -7.5 0
5 -7.5 0
3.75 -6.25 0
5 -6.25 0
2.5 -6.25 0
3.75 -6.25 0
2.5 -5 0
3.75 -5 0
3.75 -6.25 0
5 -6.25 0
3.75 -5 0
5 -5 0
-5 -8.75 0
-3.75 -8.75 0
-5 -7.5 0
-3.75 -7.5 0
-3.75 -8.75 0
-2.5 -8.75 0
-3.75 -7.5 0
-2.5 -7.5 0
-2.5 -8.75 0
-1.25 -8.75 0
-2.5 -7.5 0
-1.25 -7.5 0
-1.25 -8.75 0
0 -8.75 0
-1.25 -7.5 0
0 -7.5 0
-10 5 0
-8.75 5 0
-10 6.25 0
-8.75 6.25 0
-8.75 5 0
-7.5 5 0
-8.75 6.25 0
-7.5 6.25 0
-10 6.25 0
-8.75 6.25 0
-10 7.5 0
-8.75 7.5 0
-8.75 6.25 0
-7.5 6.25 0
-8.75 7.5 0
-7.5 7.5 0
0 -7.5 0
1.25 -7.5 0
0 -6.25 0
1.25 -6.25 0
1.25 -7.5 0
2.5 -7.5 0
1.25 -6.25 0
2.5 -6.25 0
0 -6.25 0
1.25 -6.25 0
0 -5 0
1.25 -5 0
1.25 -6.25 0
2.5 -6.25 0
1.25 -5 0
2.5 -5 0
-8.75 -5 0
-7.5 -5 0
-8.75 -3.75 0
-7.5 -3.75 0
-8.75 -3.75 0
-7.5 -3.75 0
-8.75 -2.5 0
-7.5 -2.5 0
-7.5 0 0
-6.25 0 0
-7.5 1.25 0
-6.25 1.25 0
-6.25 0 0
-5 0 0
-6.25 1.25 0
-5 1.25 0
-7.5 1.25 0
-6.25 1.25 0
-7.5 2.5 0
-6.25 2.5 0
-6.25 1.25 0
-5 1.25 0
-6.25 2.5 0
-5 2.5 0
-8.75 -2.5 0
-7.5 -2.5 0
-8.75 -1.25 0
-7.5 -1.25 0
-8.75 -1.25 0
-7.5 -1.25 0
-8.75 0 0
-7.5 0 0
-7.5 2.5 0
-6.25 2.5 0
-7.5 3.75 0
-6.25 3.75 0
-6.25 2.5 0
-5 2.5 0
-6.25 3.75 0
-5 3.75 0
-7.5 3.75 0
-6.25 3.75 0
-7.5 5 0
-6.25 5 0
-6.25 3.75 0
-5 3.75 0
-6.25 5 0
-5 5 0
3.75 -8.75 0
5 -8.75 0
3.75 -7.5 0
5 -7.5 0
5 -7.5 0
6.25 -7.5 0
5 -6.25 0
6.25 -6.25 0
6.25 -7.5 0
7.5 -7.5 0
6.25 -6.25 0
7.5 -6.25 0
5 -6.25 0
6.25 -6.25 0
5 -5 0
6.25 -5 0
6.25 -6.25 0
7.5 -6.25 0
6.25 -5 0
7.5 -5 0
-7.5 5 0
-6.25 5 0
-7.5 6.25 0
-6.25 6.25 0
-6.25 5 0
-5 5 0
-6.25 6.25 0
-5 6.25 0
-7.5 6.25 0
-6.25 6.25 0
-7.5 7.5 0
-6.25 7.5 0
-6.25 6.25 0
-5 6.25 0
-6.25 7.5 0
-5 7.5 0
5 -10 0
6.25 -10 0
5 -8.75 0
6.25 -8.75 0
6.25 -10 0
7.5 -10 0
6.25 -8.75 0
7.5 -8.75 0
6.25 -8.75 0
7.5 -8.75 0
6.25 -7.5 0
7.5 -7.5 0
-8.75 -8.75 0
-8.125 -8.75 0
-8.75 -8.125 0
-8.125 -8.125 0
-8.125 -8.75 0
-7.5 -8.75 0
-8.125 -8.125 0
-7.5 -8.125 0
-8.75 -8.125 0
-8.125 -8.125 0
-8.75 -7.5 0
-8.125 -7.5 0
-8.125 -8.125 0
-7.5 -8.125 0
-8.125 -7.5 0
-7.5 -7.5 0
-7.5 -9.375 0
-6.875 -9.375 0
-7.5 -8.75 0
-6.875 -8.75 0
-6.875 -9.375 0
-6.25 -9.375 0
-6.875 -8.75 0
-6.25 -8.75 0
-6.25 -9.375 0
-5.625 -9.375 0
-6.25 -8.75 0
-5.625 -8.75 0
-5.625 -9.375 0
-5 -9.375 0
-5.625 -8.75 0
-5 -8.75 0
0 -8.75 0
0.625 -8.75 0
0 -8.125 0
0.625 -8.125 0
0.625 -8.75 0
1.25 -8.75 0
0.625 -8.125 0
1.25 -8.125 0
0 -8.125 0
0.625 -8.125 0
0 -7.5 0
0.625 -7.5 0
0.625 -8.125 0
1.25 -8.125 0
0.625 -7.5 0
1.25 -7.5 0
1.25 -8.75 0
1.875 -8.75 0
1.25 -8.125 0
1.875 -8.125 0
1.875 -8.75 0
2.5 -8.75 0
1.875 -8.125 0
2.5 -8.125 0
1.25 -8.125 0
1.875 -8.125 0
1.25 -7.5 0
1.875 -7.5 0
1.875 -8.125 0
2.5 -8.125 0
1.875 -7.5 0
2.5 -7.5 0
-9.375 -7.5 0
-8.75 -7.5 0
-9.375 -6.875 0
-8.75 -6.875 0
-9.375 -6.875 0
-8.75 -6.875 0
-9.375 -6.25 0
-8.75 -6.25 0
2.5 -8.75 0
3.125 -8.75 0
2.5 -8.125 0
3.125 -8.125 0
3.125 -8.75 0
3.75 -8.75 0
3.125 -8.125 0
3.75 -8.125 0
2.5 -8.125 0
3.125 -8.125 0
2.5 -7.5 0
3.125 -7.5 0
3.125 -8.125 0
3.75 -8.125 0
3.125 -7.5 0
3.75 -7.5 0
-9.375 -6.25 0
-8.75 -6.25 0
-9.375 -5.625 0
-8.75 -5.625 0
-9.375 -5.625 0
-8.75 -5.625 0
-9.375 -5 0
-8.75 -5 0
-8.75 0 0
-8.125 0 0
-8.75 0.625 0
-8.125 0.625 0
-8.125 0 0
-7.5 0 0
-8.125 0.625 0
-7.5 0.625 0
-8.75 0.625 0
-8.125 0.625 0
-8.75 1.25 0
-8.125 1.25 0
-8.125 0.625 0
-7.5 0.625 0
-8.125 1.25 0
-7.5 1.25 0
-5 -9.375 0
-4.375 -9.375 0
-5 -8.75 0
-4.375 -8.75 0
-4.375 -9.375 0
-3.75 -9.375 0
-4.375 -8.75 0
-3.75 -8.75 0
-3.75 -9.375 0
-3.125 -9.375 0
-3.75 -8.75 0
-3.125 -8.75 0
-3.125 -9.375 0
-2.5 -9.375 0
-3.125 -8.75 0
-2.5 -8.75 0
-8.75 1.25 0
-8.125 1.25 0
-8.75 1.875 0
-8.125 1.875 0
-8.125 1.25 0
-7.5 1.25 0
-8.125 1.875 0
-7.5 1.875 0
-8.75 1.875 0
-8.125 1.875 0
-8.75 2.5 0
-8.125 2.5 0
-8.125 1.875 0
-7.5 1.875 0
-8.125 2.5 0
-7.5 2.5 0
-8.75 2.5 0
-8.125 2.5 0
-8.75 3.125 0
-8.125 3.125 0
-8.125 2.5 0
-7.5 2.5 0
-8.125 3.125 0
-7.5 3.125 0
-8.75 3.125 0
-8.125 3.125 0
-8.75 3.75 0
-8.125 3.75 0
-8.125 3.125 0
-7.5 3.125 0
-8.125 3.75 0
-7.5 3.75 0
-2.5 -9.375 0
-1.875 -9.375 0
-2.5 -8.75 0
-1.875 -8.75 0
-1.875 -9.375 0
-1.25 -9.375 0
-1.875 -8.75 0
-1.25 -8.75 0
-1.25 -9.375 0
-0.625 -9.375 0
-1.25 -8.75 0
-0.625 -8.75 0
-0.625 -9.375 0
0 -9.375 0
-0.625 -8.75 0
0 -8.75 0
-10 3.75 0
-9.375 3.75 0
-10 4.375 0
-9.375 4.375 0
-9.375 3.75 0
-8.75 3.75 0
-9.375 4.375 0
-8.75 4.375 0
-10 4.375 0
-9.375 4.375 0
-10 5 0
-9.375 5 0
-9.375 4.375 0
-8.75 4.375 0
-9.375 5 0
-8.75 5 0
-8.75 3.75 0
-8.125 3.75 0
-8.75 4.375 0
-8.125 4.375 0
-8.125 3.75 0
-7.5 3.75 0
-8.125 4.375 0
-7.5 4.375 0
-8.75 4.375 0
-8.125 4.375 0
-8.75 5 0
-8.125 5 0
-8.125 4.375 0
-7.5 4.375 0
-8.125 5 0
-7.5 5 0
-9.375 -5 0
-8.75 -5 0
-9.375 -4.375 0
-8.75 -4.375 0
-9.375 -4.375 0
-8.75 -4.375 0
-9.375 -3.75 0
-8.75 -3.75 0
5 -8.75 0
5.625 -8.75 0
5 -8.125 0
5.625 -8.125 0
5.625 -8.75 0
6.25 -8.75 0
5.625 -8.125 0
6.25 -8.125 0
5 -8.125 0
5.625 -8.125 0
5 -7.5 0
5.625 -7.5 0
5.625 -8.125 0
6.25 -8.125 0
5.625 -7.5 0
6.25 -7.5 0
-9.375 -3.75 0
-8.75 -3.75 0
-9.375 -3.125 0
-8.75 -3.125 0
-9.375 -3.125 0
-8.75 -3.125 0
-9.375 -2.5 0
-8.75 -2.5 0
-9.375 -2.5 0
-8.75 -2.5 0
-9.375 -1.875 0
-8.75 -1.875 0
-9.375 -1.875 0
-8.75 -1.875 0
-9.375 -1.25 0
-8.75 -1.25 0
-9.375 -1.25 0
-8.75 -1.25 0
-9.375 -0.625 0
-8.75 -0.625 0
-9.375 -0.625 0
-8.75 -0.625 0
-9.375 0 0
-8.75 0 0
0 -9.375 0
0.625 -9.375 0
0 -8.75 0
0.625 -8.75 0
1.25 -10 0
1.875 -10 0
1.25 -9.375 0
1.875 -9.375 0
1.875 -10 0
2.5 -10 0
1.875 -9.375 0
2.5 -9.375 0
1.25 -9.375 0
1.875 -9.375 0
1.25 -8.75 0
1.875 -8.75 0
-9.375 0 0
-8.75 0 0
-9.375 0.625 0
-8.75 0.625 0
-10 1.25 0
-9.375 1.25 0
-10 1.875 0
-9.375 1.875 0
-9.375 1.25 0
-8.75 1.25 0
-9.375 1.875 0
-8.75 1.875 0
-10 1.875 0
-9.375 1.875 0
-10 2.5 0
-9.375 2.5 0
-10 3.125 0
-9.375 3.125 0
-10 3.75 0
-9.375 3.75 0
3.75 -10 0
4.375 -10 0
3.75 -9.375 0
4.375 -9.375 0
4.375 -10 0
5 -10 0
4.375 -9.375 0
5 -9.375 0
3.75 -9.375 0
4.375 -9.375 0
3.75 -8.75 0
4.375 -8.75 0
4.375 -9.375 0
5 -9.375 0
4.375 -8.75 0
5 -8.75 0
-10 -10 0
-9.6875 -10 0
-10 -9.6875 0
-9.6875 -9.6875 0
-9.6875 -10 0
-9.375 -10 0
-9.6875 -9.6875 0
-9.375 -9.6875 0
-10 -9.6875 0
-9.6875 -9.6875 0
-10 -9.375 0
-9.6875 -9.375 0
-9.6875 -9.6875 0
-9.375 -9.6875 0
-9.6875 -9.375 0
-9.375 -9.375 0
-9.375 -10 0
-9.0625 -10 0
-9.375 -9.6875 0
-9.0625 -9.6875 0
-9.0625 -10 0
-8.75 -10 0
-9.0625 -9.6875 0
-8.75 -9.6875 0
-9.375 -9.6875 0
-9.0625 -9.6875 0
-9.375 -9.375 0
-9.0625 -9.375 0
-9.0625 -9.6875 0
-8.75 -9.6875 0
-9.0625 -9.375 0
-8.75 -9.375 0
-10 -9.375 0
-9.6875 -9.375 0
-10 -9.0625 0
-9.6875 -9.0625 0
-9.6875 -9.375 0
-9.375 -9.375 0
-9.6875 -9.0625 0
-9.375 -9.0625 0
-10 -9.0625 0
-9.6875 -9.0625 0
-10 -8.75 0
-9.6875 -8.75 0
-9.6875 -9.0625 0
-9.375 -9.0625 0
-9.6875 -8.75 0
-9.375 -8.75 0
-9.375 -9.375 0
-9.0625 -9.375 0
-9.375 -9.0625 0
-9.0625 -9.0625 0
-9.0625 -9.375 0
-8.75 -9.375 0
-9.0625 -9.0625 0
-8.75 -9.0625 0
-9.375 -9.0625 0
-9.0625 -9.0625 0
-9.375 -8.75 0
-9.0625 -8.75 0
-9.0625 -9.0625 0
-8.75 -9.0625 0
-9.0625 -8.75 0
-8.75 -8.75 0
-8.75 -10 0
-8.4375 -10 0
-8.75 -9.6875 0
-8.4375 -9.6875 0
-8.4375 -10 0
-8.125 -10 0
-8.4375 -9.6875 0
-8.125 -9.6875 0
-8.75 -9.6875 0
-8.4375 -9.6875 0
-8.75 -9.375 0
-8.4375 -9.375 0
-8.4375 -9.6875 0
-8.125 -9.6875 0
-8.4375 -9.375 0
-8.125 -9.375 0
-8.125 -10 0
-7.8125 -10 0
-8.125 -9.6875 0
-7.8125 -9.6875 0
-7.8125 -10 0
-7.5 -10 0
-7.8125 -9.6875 0
-7.5 -9.6875 0
-8.125 -9.6875 0
-7.8125 -9.6875 0
-8.125 -9.375 0
-7.8125 -9.375 0
-7.8125 -9.6875 0
-7.5 -9.6875 0
-7.8125 -9.375 0
-7.5 -9.375 0
-8.75 -9.375 0
-8.4375 -9.375 0
-8.75 -9.0625 0
-8.4375 -9.0625 0
-8.4375 -9.375 0
-8.125 -9.375 0
-8.4375 -9.0625 0
-8.125 -9.0625 0
-8.75 -9.0625 0
-8.4375 -9.0625 0
-8.75 -8.75 0
-8.4375 -8.75 0
-8.4375 -9.0625 0
-8.125 -9.0625 0
-8.4375 -8.75 0
-8.125 -8.75 0
-8.125 -9.375 0
-7.8125 -9.375 0
-8.125 -9.0625 0
-7.8125 -9.0625 0
-7.8125 -9.375 0
-7.5 -9.375 0
-7.8125 -9.0625 0
-7.5 -9.0625 0
-8.125 -9.0625 0
-7.8125 -9.0625 0
-8.125 -8.75 0
-7.8125 -8.75 0
-7.8125 -9.0625 0
-7.5 -9.0625 0
-7.8125 -8.75 0
-7.5 -8.75 0
-10 -8.75 0
-9.6875 -8.75 0
-10 -8.4375 0
-9.6875 -8.4375 0
-9.6875 -8.75 0
-9.375 -8.75 0
-9.6875 -8.4375 0
-9.375 -8.4375 0
-10 -8.4375 0
-9.6875 -8.4375 0
-10 -8.125 0
-9.6875 -8.125 0
-9.6875 -8.4375 0
-9.375 -8.4375 0
-9.6875 -8.125 0
-9.375 -8.125 0
-9.375 -8.75 0
-9.0625 -8.75 0
-9.375 -8.4375 0
-9.0625 -8.4375 0
-9.0625 -8.75 0
-8.75 -8.75 0
-9.0625 -8.4375 0
-8.75 -8.4375 0
-9.375 -8.4375 0
-9.0625 -8.4375 0
-9.375 -8.125 0
-9.0625 -8.125 0
-9.0625 -8.4375 0
-8.75 -8.4375 0
-9.0625 -8.125 0
-8.75 -8.125 0
-10 -8.125 0
[...]
POINT_DATA 1420
SCALARS V double 1
LOOKUP_TABLE default
0.00888031 0.00154039 -0.00373407 0.017111 0.017111 -0.00807196 -0.0268754 0.00760011 -0.00807196 0 0.00760011 0 -0.0268754 0.00760011 0 0 0.00760011 0 0 0 -0.0236595 -0.0079657 -0.00893566 0.00888031 -0.0079657 -0.0112187 0.00888031 0.00521035 -0.0112187 -0.00372414 0.00521035 0.00154039 -0.00893566 0.00888031 -0.00861887 0.00257312 -0.00861887 0.00257312 -0.0192666 -0.00373407 0.00154039 0.00861475 0.00932571 0.007641 0.00861475 0.0213033 0.007641 0.00661566 0.00932571 0.007641 0.017111 0.00451953 0.007641 0.00661566 0.00451953 -0.00807196 0.0213033 0.0106516 0.00661566 0.00330783 0.0106516 0 0.00330783 0 0.00661566 0.00330783 -0.00807196 -0.00403598 0.00330783 0 -0.00403598 0 -0.00373407 0.00668848 0.0617466 0.0284322 0.00668848 0.017111 0.0284322 -0.00488218 0.0617466 0.0284322 0.127227 0.0501759 0.0284322 -0.00488218 0.0501759 -0.0268754 2.24326 0.997005 -0.506442 0 -0.506442 0 0.0106516 0 2.24326 -0.635172 0.997005 0 -0.635172 0.0636136 0 0 0.127227 0.0501759 0.0636136 0.025088 0.0501759 -0.0268754 0.025088 -0.0134377 0.0636136 0.025088 0 0 0.025088 -0.0134377 0 0 0.055013 0.0795153 -0.0236595 -0.0158126 0.0795153 0.0647843 -0.0158126 -0.0079657 0.0550143 -0.0236595 0.0796566 -0.0162976 0.0796566 -0.0162976 0.0650732 -0.00893566 0.0146163 0.163337 0.0116155 0.0819125 0.163337 0.265154 0.0819125 0.143229 0.0116155 0.0819125 0.00861475 0.014959 0.0819125 0.143229 0.014959 0.0213033 0.0647843 0.0624221 -0.0079657 -0.00959221 0.0624221 0.0577034 -0.00959221 -0.0112187 0.0577034 0.0521981 -0.0112187 -0.00747143 0.0521981 0.045818 -0.00747143 -0.00372414 3.48952 1.31474 2.86639 1.07766 1.31474 -0.779345 1.07766 -0.707258 2.86639 1.07766 2.24326 0.804044 1.07766 -0.707258 0.804044 -0.635172 -0.00372414 0.00544606 -0.00109187 0.00526181 0.00544606 0.0146163 0.00526181 0.0116155 -0.00109187 0.00526181 0.00154039 0.00507757 0.00526181 0.0116155 0.00507757 0.00861475 0.0650732 -0.00893566 0.0621204 -0.00877727 0.0621204 -0.00877727 0.056918 -0.00861887 -0.0192666 -0.0115003 -0.0556617 -0.0133277 -0.0115003 -0.00373407 -0.0133277 0.0290063 -0.0556617 -0.0133277 -0.0920568 -0.0151551 -0.0133277 0.0290063 -0.0151551 0.0617466 0.056918 -0.00861887 0.053954 -0.0139427 0.053954 -0.0139427 0.0514191 -0.0192666 -0.0920568 -0.0151551 -0.435701 -0.170607 -0.0151551 0.0617466 -0.170607 0.0944869 -0.435701 -0.170607 -0.779345 -0.326059 -0.170607 0.0944869 -0.326059 0.127227 0.134657 -0.580599 0.163337 0.265154 0.265154 -0.120644 0.143229 -0.0523333 -0.120644 -0.506442 -0.0523333 -0.247895 0.143229 -0.0523333 0.0213033 0.0159775 -0.0523333 -0.247895 0.0159775 0.0106516 -0.779345 -0.326059 -0.707258 -0.305919 -0.326059 0.127227 -0.305919 0.0954204 -0.707258 -0.305919 -0.635172 -0.285779 -0.305919 0.0954204 -0.285779 0.0636136 3.48952 2.86639 -0.580599 -0.89651 2.86639 2.24326 -0.89651 0.868409 -0.89651 0.868409 -0.120644 -0.506442 0.171027 0.11302 0.113021 0.0643488 0.11302 0.055013 0.0643488 0.0156768 0.113021 0.0643488 0.0550143 0.0156774 0.0643488 0.0156768 0.0156774 -0.0236595 -0.226215 -0.225614 0.055013 0.0672641 -0.225614 -0.220481 0.0672641 0.0795153 -0.220481 -0.211988 0.0795153 0.0721498 -0.211988 -0.20362 0.0721498 0.0647843 0.045818 0.0411559 0.0210469 0.0210084 0.0411559 0.0364939 0.0210084 0.02097 0.0210469 0.0210084 -0.00372414 0.000860961 0.0210084 0.02097 0.000860961 0.00544606 0.0364939 -0.00683329 0.02097 0.00159893 -0.00683329 -0.0501605 0.00159893 -0.0177721 0.02097 0.00159893 0.00544606 0.0100312 0.00159893 -0.0177721 0.0100312 0.0146163 -0.226214 0.0550143 -0.225625 0.0673355 -0.225625 0.0673355 -0.220502 0.0796566 -0.0501605 0.0422481 -0.0177721 0.0656123 0.0422481 0.134657 0.0656123 0.148997 -0.0177721 0.0656123 0.0146163 0.0889764 0.0656123 0.148997 0.0889764 0.163337 -0.220502 0.0796566 -0.212019 0.0723649 -0.212019 0.0723649 -0.203665 0.0650732 0.0514191 0.0160762 0.0486311 0.00558347 0.0160762 -0.0192666 0.00558347 -0.0374641 0.0486311 0.00558347 0.0458431 -0.00490929 0.00558347 -0.0374641 -0.00490929 -0.0556617 -0.20362 -0.196356 0.0647843 0.0636032 -0.196356 -0.18908 0.0636032 0.0624221 -0.18908 -0.181588 0.0624221 0.0600627 -0.181588 -0.174119 0.0600627 0.0577034 0.0458431 -0.00490929 -0.0244675 -0.0491634 -0.00490929 -0.0556617 -0.0491634 -0.0738592 -0.0244675 -0.0491634 -0.0947781 -0.0934174 -0.0491634 -0.0738592 -0.0934174 -0.0920568 -0.0947781 -0.0934174 -0.683507 -0.473693 -0.0934174 -0.0920568 -0.473693 -0.263879 -0.683507 -0.473693 -1.27224 -0.853968 -0.473693 -0.263879 -0.853968 -0.435701 -0.174119 -0.166547 0.0577034 0.0549508 -0.166547 -0.159169 0.0549508 0.0521981 -0.159169 -0.150844 0.0521981 0.049008 -0.150844 -0.145975 0.049008 0.045818 4.11264 1.4202 3.80108 1.91116 1.4202 -1.27224 1.91116 0.0212498 3.80108 1.91116 3.48952 2.40213 1.91116 0.0212498 2.40213 1.31474 -1.27224 -0.853968 0.0212498 -0.293136 -0.853968 -0.435701 -0.293136 -0.607523 0.0212498 -0.293136 1.31474 0.267695 -0.293136 -0.607523 0.267695 -0.779345 -0.203665 0.0650732 -0.196358 0.0635968 -0.196358 0.0635968 -0.189043 0.0621204 -0.580599 -0.738554 -0.157722 -0.33315 -0.738554 -0.89651 -0.33315 -0.508577 -0.157722 -0.33315 0.265154 0.0722551 -0.33315 -0.508577 0.0722551 -0.120644 -0.189043 0.0621204 -0.181516 0.0595192 -0.181516 0.0595192 -0.173998 0.056918 -0.173998 0.056918 -0.166639 0.055436 -0.166639 0.055436 -0.159479 0.053954 -0.159479 0.053954 -0.151376 0.0526866 -0.151376 0.0526866 -0.146911 0.0514191 -0.145975 -0.116771 0.045818 0.0411559 5.3589 5.04734 -0.173429 0.160648 5.04734 4.73577 0.160648 0.084942 -0.173429 0.160648 0.0364939 -0.00683329 -0.146911 0.0514191 -0.11774 0.0486311 5.3589 -0.174862 5.04734 0.164859 -0.174862 0.0458431 0.164859 -0.0244675 5.04734 0.164859 4.73577 0.0696134 4.42421 -0.645845 4.11264 1.4202 4.11264 3.80108 -0.461464 -0.565273 3.80108 3.48952 -0.565273 1.28152 -0.461464 -0.565273 0.134657 -0.26308 -0.565273 1.28152 -0.26308 -0.580599 10.967 10.8113 10.8113 3.07649 10.8113 10.6555 3.07649 1.28914 10.8113 3.07649 10.6555 1.28914 3.07649 1.28914 1.28914 -0.582267 10.6555 10.4997 1.28914 1.64837 10.4997 10.3439 1.64837 1.60402 1.28914 1.64837 -0.582267 -0.362505 1.64837 1.60402 -0.362505 -0.142742 10.6555 1.28914 10.4997 1.64837 1.28914 -0.582267 1.64837 -0.362505 10.4997 1.64837 10.3439 1.60402 1.64837 -0.362505 1.60402 -0.142742 -0.582267 -0.362505 -0.362505 -0.174181 -0.362505 -0.142742 -0.174181 0.0141425 -0.362505 -0.174181 -0.142742 0.0141426 -0.174181 0.0141425 0.0141426 0.171027 10.3439 10.1881 1.60402 1.567 10.1881 10.0324 1.567 1.54938 1.60402 1.567 -0.142742 -0.206173 1.567 1.54938 -0.206173 -0.269604 10.0324 9.87658 1.54938 1.52237 9.87658 9.72079 1.52237 1.50044 1.54938 1.52237 -0.269604 -0.247909 1.52237 1.50044 -0.247909 -0.226215 -0.142742 -0.206173 0.0141425 -0.0320746 -0.206173 -0.269604 -0.0320746 -0.0782918 0.0141425 -0.0320746 0.171027 0.142024 -0.0320746 -0.0782918 0.142024 0.11302 -0.269604 -0.247909 -0.0782918 -0.0819463 -0.247909 -0.226215 -0.0819463 -0.0856009 -0.0782918 -0.0819463 0.11302 0.0840166 -0.0819463 -0.0856009 0.0840166 0.055013 10.3439 1.60402 10.1881 1.567 1.60402 -0.142742 1.567 -0.206173 10.1881 1.567 10.0324 1.54938 1.567 -0.206173 1.54938 -0.269604 -0.142742 0.0141426 -0.206173 -0.0320745 0.0141426 0.171027 -0.0320745 0.142024 -0.206173 -0.0320745 -0.269604 -0.0782915 -0.0320745 0.142024 -0.0782915 0.113021 10.0324 1.54938 9.87658 1.52237 1.54938 -0.269604 1.52237 -0.247909 9.87658 1.52237 9.72079 1.50044 1.52237 -0.247909 1.50044 -0.226214 -0.269604 -0.0782915 -0.247909 -0.0819458 -0.0782915 0.113021 -0.0819458 0.0840176 -0.247909 -0.0819458 -0.226214 -0.0856 -0.0819458 0.0840176 -0.0856 0.0550143 9.72079 9.56501 1.50044 1.47643 9.56501 9.40923 1.47643 1.45179 1.50044 1.47643 -0.226215 -0.225914 1.47643 1.45179 -0.225914 -0.225614 9.40923 9.25345 1.45179 1.42759 9.25345 9.09767 1.42759 1.4036 1.45179 1.42759 -0.225614 -0.223048 1.42759 1.4036 -0.223048 -0.220481 5.67046 5.51468 2.77685 2.68479 5.51468 5.3589 2.68479 2.59273 2.77685 2.68479 -0.116771 -0.1451 2.68479 2.59273 -0.1451 -0.173429 -0.116771 -0.1451 -0.0378075 -0.0531376 -0.1451 -0.173429 -0.0531376 -0.0684677 -0.0378075 -0.0531376 0.0411559 0.0388249 -0.0531376 -0.0684677 0.0388249 0.0364939 9.09767 8.94188 1.4036 1.37953 8.94188 8.7861 1.37953 1.35553 1.4036 1.37953 -0.220481 -0.216235 1.37953 1.35553 -0.216235 -0.211988 8.7861 8.63032 1.35553 1.33157 8.63032 8.47454 1.33157 1.30759 1.35553 1.33157 -0.211988 -0.207804 1.33157 1.30759 -0.207804 -0.20362 0.160648 0.122795 0.0769071 0.047149 0.122795 0.084942 0.047149 0.0173908 0.0769071 0.047149 -0.00683329 -0.0284969 0.047149 0.0173908 -0.0284969 -0.0501605 4.73577 4.57999 2.41036 2.21118 4.57999 4.42421 2.21118 2.012 2.41036 2.21118 0.084942 -0.157636 2.21118 2.012 -0.157636 -0.400214 9.72079 1.50044 9.56501 1.47643 1.50044 -0.226214 1.47643 -0.22592 9.56501 1.47643 9.40923 1.45178 1.47643 -0.22592 1.45178 -0.225625 4.42421 4.26843 2.012 1.91879 4.26843 4.11264 1.91879 1.82559 2.012 1.91879 -0.400214 -0.430839 1.91879 1.82559 -0.430839 -0.461464 9.40923 1.45178 9.25345 1.42758 1.45178 -0.225625 1.42758 -0.223064 9.25345 1.42758 9.09767 1.4036 1.42758 -0.223064 1.4036 -0.220502 0.084942 -0.157636 0.0173908 -0.080796 -0.157636 -0.400214 -0.080796 -0.178983 0.0173908 -0.080796 -0.0501605 -0.00395616 -0.080796 -0.178983 -0.00395616 0.0422481 9.09767 1.4036 8.94188 1.37953 1.4036 -0.220502 1.37953 -0.216261 8.94188 1.37953 8.7861 1.35552 1.37953 -0.216261 1.35552 -0.212019 -0.400214 -0.430839 -0.178983 -0.171193 -0.430839 -0.461464 -0.171193 -0.163404 -0.178983 -0.171193 0.0422481 0.0884524 -0.171193 -0.163404 0.0884524 0.134657 8.7861 1.35552 8.63032 1.33156 1.35552 -0.212019 1.33156 -0.207842 8.63032 1.33156 8.47454 1.30758 1.33156 -0.207842 1.30758 -0.203665 5.67046 2.77636 5.51468 2.68419 2.77636 -0.11774 2.68419 -0.146301 5.51468 2.68419 5.3589 2.59202 2.68419 -0.146301 2.59202 -0.174862 8.47454 8.31876 1.30759 1.28356 8.31876 8.16297 1.28356 1.2595 1.30759 1.28356 -0.20362 -0.199988 1.28356 1.2595 -0.199988 -0.196356 8.16297 8.00719 1.2595 1.23544 8.00719 7.85141 1.23544 1.21139 1.2595 1.23544 -0.196356 -0.192718 1.23544 1.21139 -0.192718 -0.18908 -0.11774 -0.0345543 -0.146301 -0.0495319 -0.0345543 0.0486311 -0.0495319 0.0472371 -0.146301 -0.0495319 -0.174862 -0.0645095 -0.0495319 0.0472371 -0.0645095 0.0458431 0.164859 0.0701957 0.117236 0.0288067 0.0701957 -0.0244675 0.0288067 -0.0596228 0.117236 0.0288067 0.0696134 -0.0125823 0.0288067 -0.0596228 -0.0125823 -0.0947781 7.85141 7.69563 1.21139 1.18735 7.69563 7.53985 1.18735 1.16331 1.21139 1.18735 -0.18908 -0.185334 1.18735 1.16331 -0.185334 -0.181588 7.53985 7.38406 1.16331 1.13927 7.38406 7.22828 1.13927 1.11524 1.16331 1.13927 -0.181588 -0.177854 1.13927 1.11524 -0.177854 -0.174119 4.73577 2.40269 4.57999 2.14594 2.40269 0.0696134 2.14594 -0.288116 4.57999 2.14594 4.42421 1.88918 2.14594 -0.288116 1.88918 -0.645845 0.0696134 -0.0125823 -0.288116 -0.338629 -0.0125823 -0.0947781 -0.338629 -0.389143 -0.288116 -0.338629 -0.645845 -0.664676 -0.338629 -0.389143 -0.664676 -0.683507 7.22828 7.0725 1.11524 1.09121 7.0725 6.91672 1.09121 1.06718 1.11524 1.09121 -0.174119 -0.170333 1.09121 1.06718 -0.170333 -0.166547 6.91672 6.76094 1.06718 1.04315 6.76094 6.60515 1.04315 1.01919 1.06718 1.04315 -0.166547 -0.162858 1.04315 1.01919 -0.162858 -0.159169 -0.645845 -0.664676 0.387179 -0.295346 -0.664676 -0.683507 -0.295346 -0.977871 0.387179 -0.295346 1.4202 0.0739841 -0.295346 -0.977871 0.0739841 -1.27224 6.60515 6.44937 1.01919 0.994843 6.44937 6.29359 0.994843 0.972465 1.01919 0.994843 -0.159169 -0.155006 0.994843 0.972465 -0.155006 -0.150844 6.29359 6.13781 0.972465 0.938417 6.13781 5.98203 0.938417 0.976037 0.972465 0.938417 -0.150844 -0.148409 0.938417 0.976037 -0.148409 -0.145975 8.47454 1.30758 8.31876 1.28355 1.30758 -0.203665 1.28355 -0.200012 8.31876 1.28355 8.16297 1.2595 1.28355 -0.200012 1.2595 -0.196358 8.16297 1.2595 8.00719 1.23545 1.2595 -0.196358 1.23545 -0.1927 8.00719 1.23545 7.85141 1.21141 1.23545 -0.1927 1.21141 -0.189043 7.85141 1.21141 7.69563 1.18737 1.21141 -0.189043 1.18737 -0.185279 7.69563 1.18737 7.53985 1.16333 1.18737 -0.185279 1.16333 -0.181516 7.53985 1.16333 7.38406 1.1393 1.16333 -0.181516 1.1393 -0.177757 7.38406 1.1393 7.22828 1.11526 1.1393 -0.177757 1.11526 -0.173998 7.22828 1.11526 7.0725 1.09122 1.11526 -0.173998 1.09122 -0.170319 7.0725 1.09122 6.91672 1.06718 1.09122 -0.170319 1.06718 -0.166639 6.91672 1.06718 6.76094 1.04315 1.06718 -0.166639 1.04315 -0.163059 6.76094 1.04315 6.60515 1.01917 1.04315 -0.163059 1.01917 -0.159479 6.60515 1.01917 6.44937 0.994719 1.01917 -0.159479 0.994719 -0.155428 6.44937 0.994719 6.29359 0.972228 0.994719 -0.155428 0.972228 -0.151376 6.29359 0.972228 6.13781 0.938111 0.972228 -0.151376 0.938111 -0.149143 6.13781 0.938111 5.98203 0.975682 0.938111 -0.149143 0.975682 -0.146911 5.98203 5.82624 0.976037 0.581263 5.82624 5.67046 0.581263 2.77685 0.976037 0.581263 -0.145975 -0.131373 0.581263 2.77685 -0.131373 -0.116771 5.98203 0.975682 5.82624 0.581028 0.975682 -0.146911 0.581028 -0.132325 5.82624 0.581028 5.67046 2.77636 0.581028 -0.132325 2.77636 -0.11774 
