# vtk DataFile Version 3.0
#This file was generated by the deal.II library on 2015/4/22 at 22:35:30
ASCII
DATASET UNSTRUCTURED_GRID

POINTS 7180 double
0.25 0.125 0
0.375 0.125 0
0.25 0.25 0
0.375 0.25 0
0.375 0.125 0
0.5 0.125 0
0.375 0.25 0
0.5 0.25 0
0.125 0.25 0
0.25 0.25 0
0.125 0.375 0
0.25 0.375 0
0.125 0.375 0
0.25 0.375 0
0.125 0.5 0
0.25 0.5 0
0 0 0
0.125 0 0
0 0.125 0
0.125 0.125 0
0.125 0 0
0.25 0 0
0.125 0.125 0
0.25 0.125 0
0 0.125 0
0.125 0.125 0
0 0.25 0
0.125 0.25 0
0.125 0.125 0
0.25 0.125 0
0.125 0.25 0
0.25 0.25 0
0.25 0.25 0
0.375 0.25 0
0.25 0.375 0
0.375 0.375 0
0.625 0.125 0
0.6875 0.125 0
0.625 0.1875 0
0.6875 0.1875 0
0.625 0.1875 0
0.6875 0.1875 0
0.625 0.25 0
0.6875 0.25 0
0.125 0.625 0
0.1875 0.625 0
0.125 0.6875 0
0.1875 0.6875 0
0.1875 0.625 0
0.25 0.625 0
0.1875 0.6875 0
0.25 0.6875 0
0.5 0 0
0.5625 0 0
0.5 0.0625 0
0.5625 0.0625 0
0.5625 0 0
0.625 0 0
0.5625 0.0625 0
0.625 0.0625 0
0.5 0.0625 0
0.5625 0.0625 0
0.5 0.125 0
0.5625 0.125 0
0.5625 0.0625 0
0.625 0.0625 0
0.5625 0.125 0
0.625 0.125 0
0.5 0.125 0
0.5625 0.125 0
0.5 0.1875 0
0.5625 0.1875 0
0.5 0.1875 0
0.5625 0.1875 0
0.5 0.25 0
0.5625 0.25 0
0.5625 0.1875 0
0.625 0.1875 0
0.5625 0.25 0
0.625 0.25 0
0 0.5 0
0.0625 0.5 0
0 0.5625 0
0.0625 0.5625 0
0.0625 0.5 0
0.125 0.5 0
0.0625 0.5625 0
0.125 0.5625 0
0 0.5625 0
0.0625 0.5625 0
0 0.625 0
0.0625 0.625 0
0.0625 0.5625 0
0.125 0.5625 0
0.0625 0.625 0
0.125 0.625 0
0.125 0.5 0
0.1875 0.5 0
0.125 0.5625 0
0.1875 0.5625 0
0.1875 0.5 0
0.25 0.5 0
0.1875 0.5625 0
0.25 0.5625 0
0.1875 0.5625 0
0.25 0.5625 0
0.1875 0.625 0
0.25 0.625 0
0.625 0.3125 0
0.6875 0.3125 0
0.625 0.375 0
0.6875 0.375 0
0.625 0.375 0
0.6875 0.375 0
0.625 0.4375 0
0.6875 0.4375 0
0.625 0.4375 0
0.6875 0.4375 0
0.625 0.5 0
0.6875 0.5 0
0.3125 0.625 0
0.375 0.625 0
0.3125 0.6875 0
0.375 0.6875 0
0.375 0.625 0
0.4375 0.625 0
0.375 0.6875 0
0.4375 0.6875 0
0.4375 0.625 0
0.5 0.625 0
0.4375 0.6875 0
0.5 0.6875 0
0.625 0.5 0
0.6875 0.5 0
0.625 0.5625 0
0.6875 0.5625 0
0.625 0.5625 0
0.6875 0.5625 0
0.625 0.625 0
0.6875 0.625 0
0.5 0.625 0
0.5625 0.625 0
0.5 0.6875 0
0.5625 0.6875 0
0.5625 0.625 0
0.625 0.625 0
0.5625 0.6875 0
0.625 0.6875 0
0.25 0 0
0.3125 0 0
0.25 0.0625 0
0.3125 0.0625 0
0.3125 0 0
0.375 0 0
0.3125 0.0625 0
0.375 0.0625 0
0.25 0.0625 0
0.3125 0.0625 0
0.25 0.125 0
0.3125 0.125 0
0.3125 0.0625 0
0.375 0.0625 0
0.3125 0.125 0
0.375 0.125 0
0.4375 0 0
0.5 0 0
0.4375 0.0625 0
0.5 0.0625 0
0.375 0.0625 0
0.4375 0.0625 0
0.375 0.125 0
0.4375 0.125 0
0.4375 0.0625 0
0.5 0.0625 0
0.4375 0.125 0
0.5 0.125 0
0 0.25 0
0.0625 0.25 0
0 0.3125 0
0.0625 0.3125 0
0.0625 0.25 0
0.125 0.25 0
0.0625 0.3125 0
0.125 0.3125 0
0 0.3125 0
0.0625 0.3125 0
0 0.375 0
0.0625 0.375 0
0.0625 0.3125 0
0.125 0.3125 0
0.0625 0.375 0
0.125 0.375 0
0.0625 0.375 0
0.125 0.375 0
0.0625 0.4375 0
0.125 0.4375 0
0 0.4375 0
0.0625 0.4375 0
0 0.5 0
0.0625 0.5 0
0.0625 0.4375 0
0.125 0.4375 0
0.0625 0.5 0
0.125 0.5 0
0.5 0.25 0
0.5625 0.25 0
0.5 0.3125 0
0.5625 0.3125 0
0.5 0.3125 0
0.5625 0.3125 0
0.5 0.375 0
0.5625 0.375 0
0.5 0.375 0
0.5625 0.375 0
0.5 0.4375 0
0.5625 0.4375 0
0.5 0.4375 0
0.5625 0.4375 0
0.5 0.5 0
0.5625 0.5 0
0.25 0.5 0
0.3125 0.5 0
0.25 0.5625 0
0.3125 0.5625 0
0.3125 0.5 0
0.375 0.5 0
0.3125 0.5625 0
0.375 0.5625 0
0.375 0.5 0
0.4375 0.5 0
0.375 0.5625 0
0.4375 0.5625 0
0.4375 0.5 0
0.5 0.5 0
0.4375 0.5625 0
0.5 0.5625 0
0.5625 0.5625 0
0.625 0.5625 0
0.5625 0.625 0
0.625 0.625 0
0.375 0.25 0
0.4375 0.25 0
0.375 0.3125 0
0.4375 0.3125 0
0.4375 0.25 0
0.5 0.25 0
0.4375 0.3125 0
0.5 0.3125 0
0.375 0.3125 0
0.4375 0.3125 0
0.375 0.375 0
0.4375 0.375 0
0.4375 0.3125 0
0.5 0.3125 0
0.4375 0.375 0
0.5 0.375 0
0.25 0.375 0
0.3125 0.375 0
0.25 0.4375 0
0.3125 0.4375 0
0.3125 0.375 0
0.375 0.375 0
0.3125 0.4375 0
0.375 0.4375 0
0.25 0.4375 0
0.3125 0.4375 0
0.25 0.5 0
0.3125 0.5 0
0.3125 0.4375 0
0.375 0.4375 0
0.3125 0.5 0
0.375 0.5 0
0.375 0.375 0
0.4375 0.375 0
0.375 0.4375 0
0.4375 0.4375 0
0.4375 0.375 0
0.5 0.375 0
0.4375 0.4375 0
0.5 0.4375 0
0.375 0.4375 0
0.4375 0.4375 0
0.375 0.5 0
0.4375 0.5 0
0.4375 0.4375 0
0.5 0.4375 0
0.4375 0.5 0
0.5 0.5 0
0.875 0.3125 0
0.90625 0.3125 0
0.875 0.34375 0
0.90625 0.34375 0
0.90625 0.3125 0
0.9375 0.3125 0
0.90625 0.34375 0
0.9375 0.34375 0
0.875 0.34375 0
0.90625 0.34375 0
0.875 0.375 0
0.90625 0.375 0
0.90625 0.34375 0
0.9375 0.34375 0
0.90625 0.375 0
0.9375 0.375 0
0.875 0.375 0
0.90625 0.375 0
0.875 0.40625 0
0.90625 0.40625 0
0.90625 0.375 0
0.9375 0.375 0
0.90625 0.40625 0
0.9375 0.40625 0
0.875 0.40625 0
0.90625 0.40625 0
0.875 0.4375 0
0.90625 0.4375 0
0.90625 0.40625 0
0.9375 0.40625 0
0.90625 0.4375 0
0.9375 0.4375 0
0.9375 0.375 0
0.96875 0.375 0
0.9375 0.40625 0
0.96875 0.40625 0
0.9375 0.40625 0
0.96875 0.40625 0
0.9375 0.4375 0
0.96875 0.4375 0
0.875 0.4375 0
0.90625 0.4375 0
0.875 0.46875 0
0.90625 0.46875 0
0.90625 0.4375 0
0.9375 0.4375 0
0.90625 0.46875 0
0.9375 0.46875 0
0.875 0.46875 0
0.90625 0.46875 0
0.875 0.5 0
0.90625 0.5 0
0.90625 0.46875 0
0.9375 0.46875 0
0.90625 0.5 0
0.9375 0.5 0
0.9375 0.4375 0
0.96875 0.4375 0
0.9375 0.46875 0
0.96875 0.46875 0
0.9375 0.46875 0
0.96875 0.46875 0
0.9375 0.5 0
0.96875 0.5 0
0.3125 0.875 0
0.34375 0.875 0
0.3125 0.90625 0
0.34375 0.90625 0
0.34375 0.875 0
0.375 0.875 0
0.34375 0.90625 0
0.375 0.90625 0
0.3125 0.90625 0
0.34375 0.90625 0
0.3125 0.9375 0
0.34375 0.9375 0
0.34375 0.90625 0
0.375 0.90625 0
0.34375 0.9375 0
0.375 0.9375 0
0.375 0.875 0
0.40625 0.875 0
0.375 0.90625 0
0.40625 0.90625 0
0.40625 0.875 0
0.4375 0.875 0
0.40625 0.90625 0
0.4375 0.90625 0
0.375 0.90625 0
0.40625 0.90625 0
0.375 0.9375 0
0.40625 0.9375 0
0.40625 0.90625 0
0.4375 0.90625 0
0.40625 0.9375 0
0.4375 0.9375 0
0.4375 0.875 0
0.46875 0.875 0
0.4375 0.90625 0
0.46875 0.90625 0
0.46875 0.875 0
0.5 0.875 0
0.46875 0.90625 0
0.5 0.90625 0
0.4375 0.90625 0
0.46875 0.90625 0
0.4375 0.9375 0
0.46875 0.9375 0
0.46875 0.90625 0
0.5 0.90625 0
0.46875 0.9375 0
0.5 0.9375 0
0.375 0.9375 0
0.40625 0.9375 0
0.375 0.96875 0
0.40625 0.96875 0
0.40625 0.9375 0
0.4375 0.9375 0
0.40625 0.96875 0
0.4375 0.96875 0
0.4375 0.9375 0
0.46875 0.9375 0
0.4375 0.96875 0
0.46875 0.96875 0
0.46875 0.9375 0
0.5 0.9375 0
0.46875 0.96875 0
0.5 0.96875 0
0.875 0.5 0
0.90625 0.5 0
0.875 0.53125 0
0.90625 0.53125 0
0.90625 0.5 0
0.9375 0.5 0
0.90625 0.53125 0
0.9375 0.53125 0
0.90625 0.53125 0
0.9375 0.53125 0
0.90625 0.5625 0
0.9375 0.5625 0
0.9375 0.5 0
0.96875 0.5 0
0.9375 0.53125 0
0.96875 0.53125 0
0.9375 0.53125 0
0.96875 0.53125 0
0.9375 0.5625 0
0.96875 0.5625 0
0.90625 0.5625 0
0.9375 0.5625 0
0.90625 0.59375 0
0.9375 0.59375 0
0.90625 0.59375 0
0.9375 0.59375 0
0.90625 0.625 0
0.9375 0.625 0
0.9375 0.59375 0
0.96875 0.59375 0
0.9375 0.625 0
0.96875 0.625 0
0.8125 0 0
0.84375 0 0
0.8125 0.03125 0
0.84375 0.03125 0
0.9375 0.6875 0
0.96875 0.6875 0
0.9375 0.71875 0
0.96875 0.71875 0
0.75 0.09375 0
0.78125 0.09375 0
0.75 0.125 0
0.78125 0.125 0
0.78125 0.09375 0
0.8125 0.09375 0
0.78125 0.125 0
0.8125 0.125 0
0.5 0.875 0
0.53125 0.875 0
0.5 0.90625 0
0.53125 0.90625 0
0.5 0.90625 0
0.53125 0.90625 0
0.5 0.9375 0
0.53125 0.9375 0
0.53125 0.90625 0
0.5625 0.90625 0
0.53125 0.9375 0
0.5625 0.9375 0
0.5625 0.90625 0
0.59375 0.90625 0
0.5625 0.9375 0
0.59375 0.9375 0
0.5 0.9375 0
0.53125 0.9375 0
0.5 0.96875 0
0.53125 0.96875 0
0.53125 0.9375 0
0.5625 0.9375 0
0.53125 0.96875 0
0.5625 0.96875 0
0.625 0.9375 0
0.65625 0.9375 0
0.625 0.96875 0
0.65625 0.96875 0
0.84375 0.0625 0
0.875 0.0625 0
0.84375 0.09375 0
0.875 0.09375 0
0.8125 0.09375 0
0.84375 0.09375 0
0.8125 0.125 0
0.84375 0.125 0
0.84375 0.09375 0
0.875 0.09375 0
0.84375 0.125 0
0.875 0.125 0
0.875 0.25 0
0.90625 0.25 0
0.875 0.28125 0
0.90625 0.28125 0
0.875 0.28125 0
0.90625 0.28125 0
0.875 0.3125 0
0.90625 0.3125 0
0.875 0.0625 0
0.90625 0.0625 0
0.875 0.09375 0
0.90625 0.09375 0
0.875 0.09375 0
0.90625 0.09375 0
0.875 0.125 0
0.90625 0.125 0
0.25 0.875 0
0.28125 0.875 0
0.25 0.90625 0
0.28125 0.90625 0
0.28125 0.875 0
0.3125 0.875 0
0.28125 0.90625 0
0.3125 0.90625 0
0.875 0.125 0
0.90625 0.125 0
0.875 0.15625 0
0.90625 0.15625 0
0.875 0.15625 0
0.90625 0.15625 0
0.875 0.1875 0
0.90625 0.1875 0
0.875 0.1875 0
0.90625 0.1875 0
0.875 0.21875 0
0.90625 0.21875 0
0.875 0.21875 0
0.90625 0.21875 0
0.875 0.25 0
0.90625 0.25 0
0 0.8125 0
0.03125 0.8125 0
0 0.84375 0
0.03125 0.84375 0
0.09375 0.8125 0
0.125 0.8125 0
0.09375 0.84375 0
0.125 0.84375 0
0.0625 0.84375 0
0.09375 0.84375 0
0.0625 0.875 0
0.09375 0.875 0
0.09375 0.84375 0
0.125 0.84375 0
0.09375 0.875 0
0.125 0.875 0
0.0625 0.875 0
0.09375 0.875 0
0.0625 0.90625 0
0.09375 0.90625 0
0.09375 0.875 0
0.125 0.875 0
0.09375 0.90625 0
0.125 0.90625 0
0.125 0.875 0
0.15625 0.875 0
0.125 0.90625 0
0.15625 0.90625 0
0.15625 0.875 0
0.1875 0.875 0
0.15625 0.90625 0
0.1875 0.90625 0
0.1875 0.875 0
0.21875 0.875 0
0.1875 0.90625 0
0.21875 0.90625 0
0.21875 0.875 0
0.25 0.875 0
0.21875 0.90625 0
0.25 0.90625 0
0.75 0.03125 0
0.78125 0.03125 0
0.75 0.0625 0
0.78125 0.0625 0
0.8125 0.65625 0
0.84375 0.65625 0
0.8125 0.6875 0
0.84375 0.6875 0
0.84375 0.65625 0
0.875 0.65625 0
0.84375 0.6875 0
0.875 0.6875 0
0.8125 0.6875 0
0.84375 0.6875 0
0.8125 0.71875 0
0.84375 0.71875 0
0.84375 0.6875 0
0.875 0.6875 0
0.84375 0.71875 0
0.875 0.71875 0
0.8125 0.71875 0
0.84375 0.71875 0
0.8125 0.75 0
0.84375 0.75 0
0.65625 0.8125 0
0.6875 0.8125 0
0.65625 0.84375 0
0.6875 0.84375 0
0.65625 0.84375 0
0.6875 0.84375 0
0.65625 0.875 0
0.6875 0.875 0
0.6875 0.8125 0
0.71875 0.8125 0
0.6875 0.84375 0
0.71875 0.84375 0
0.71875 0.8125 0
0.75 0.8125 0
0.71875 0.84375 0
0.75 0.84375 0
0.09375 0.75 0
0.125 0.75 0
0.09375 0.78125 0
0.125 0.78125 0
0.09375 0.78125 0
0.125 0.78125 0
0.09375 0.8125 0
0.125 0.8125 0
0.625 0 0
0.65625 0 0
0.625 0.03125 0
0.65625 0.03125 0
0.65625 0 0
0.6875 0 0
0.65625 0.03125 0
0.6875 0.03125 0
0.625 0.03125 0
0.65625 0.03125 0
0.625 0.0625 0
0.65625 0.0625 0
0.6875 0 0
0.71875 0 0
0.6875 0.03125 0
0.71875 0.03125 0
0.71875 0 0
0.75 0 0
0.71875 0.03125 0
[...]
POINT_DATA 7180
SCALARS V double 1
LOOKUP_TABLE default
0.00237891 0.00831486 0.00297887 0.00470559 0.00831486 0.0275084 0.00470559 0.00964487 0.002379 0.00297887 0.00831739 0.00470754 0.00831739 0.00470754 0.027529 0.00965929 0 0 0 0.000704606 0 0 0.000704606 0.00237891 0 0.000704606 0 0.002379 0.000704606 0.00237891 0.002379 0.00297887 0.00297887 0.00470559 0.00470754 0.00183484 0.0566033 0.0822684 0.040485 0.0589783 0.040485 0.0589783 0.026475 0.0442199 0.0566679 0.040551 0.0823526 0.0590713 0.040551 0.0265202 0.0590713 0.0442846 0.0497506 0.0808448 0.0390113 0.0597245 0.0808448 0.111939 0.0597245 0.087231 0.0390113 0.0597245 0.0275084 0.0416722 0.0597245 0.087231 0.0416722 0.0566033 0.0275084 0.0416722 0.0182005 0.0274059 0.0182005 0.0274059 0.00964487 0.0157075 0.0274059 0.040485 0.0157075 0.026475 0.0497506 0.039024 0.0808448 0.0597516 0.039024 0.027529 0.0597516 0.0417112 0.0808448 0.0597516 0.111939 0.0872688 0.0597516 0.0417112 0.0872688 0.0566679 0.027529 0.0182209 0.0417112 0.0274459 0.0182209 0.00965929 0.0274459 0.0157378 0.0274459 0.0157378 0.040551 0.0265202 0.0193364 0.0367395 0.0153536 0.0349553 0.0153536 0.0349553 0.0151244 0.0352261 0.0151244 0.0352261 0.0164716 0.0378189 0.0193652 0.0153631 0.0367734 0.0349687 0.0153631 0.0151256 0.0349687 0.0352264 0.0151256 0.0164684 0.0352264 0.0378146 0.0164716 0.0378189 0.021486 0.0434019 0.021486 0.0434019 0.0330974 0.0556846 0.0164684 0.0214837 0.0378146 0.043398 0.0214837 0.0330974 0.043398 0.0556841 0 0 0.00118945 0.00289884 0 0 0.00289884 0.00968333 0.00118945 0.00289884 0.00237891 0.00534689 0.00289884 0.00968333 0.00534689 0.00831486 0.0186565 0.0497506 0.0198675 0.0390113 0.00968333 0.0198675 0.00831486 0.0164491 0.0198675 0.0390113 0.0164491 0.0275084 0 0.0011895 0 0.00289942 0.0011895 0.002379 0.00289942 0.0053482 0 0.00289942 0 0.0096856 0.00289942 0.0053482 0.0096856 0.00831739 0.0096856 0.00831739 0.0198729 0.0164582 0.0186565 0.0198729 0.0497506 0.039024 0.0198729 0.0164582 0.039024 0.027529 0.00964487 0.0157075 0.00622583 0.0104318 0.00622583 0.0104318 0.00280679 0.00691525 0.00280679 0.00691525 0.00277473 0.0062365 0.00277473 0.0062365 0.00274267 0.00716733 0.00965929 0.00623484 0.0157378 0.0104491 0.00623484 0.00281039 0.0104491 0.00692205 0.00281039 0.00277653 0.00692205 0.00623823 0.00277653 0.00274267 0.00623823 0.00716639 0.0108829 0.021486 0.0214837 0.0330974 0.00470559 0.00717523 0.00327021 0.00474802 0.00717523 0.00964487 0.00474802 0.00622583 0.00327021 0.00474802 0.00183484 0.00232082 0.00474802 0.00622583 0.00232082 0.00280679 0.00470754 0.00327119 0.00718341 0.00475301 0.00327119 0.00183484 0.00475301 0.00232261 0.00718341 0.00475301 0.00965929 0.00623484 0.00475301 0.00232261 0.00623484 0.00281039 0.00183484 0.00232082 0.00232261 0.00254867 0.00232082 0.00280679 0.00254867 0.00277473 0.00232261 0.00254867 0.00281039 0.00277653 0.00254867 0.00277473 0.00277653 0.00274267 0.220144 0.27343 0.225033 0.280959 0.27343 0.330416 0.280959 0.343432 0.225033 0.280959 0.231022 0.287979 0.280959 0.343432 0.287979 0.353191 0.231022 0.287979 0.237394 0.296989 0.287979 0.353191 0.296989 0.364231 0.237394 0.296989 0.244179 0.30606 0.296989 0.364231 0.30606 0.374906 0.353191 0.412678 0.364231 0.425269 0.364231 0.425269 0.374906 0.438391 0.244179 0.30606 0.251413 0.314862 0.30606 0.374906 0.314862 0.385391 0.251413 0.314862 0.259099 0.324461 0.314862 0.385391 0.324461 0.397147 0.374906 0.438391 0.385391 0.451611 0.385391 0.451611 0.397147 0.464847 0.220168 0.225049 0.273449 0.280971 0.225049 0.23103 0.280971 0.287985 0.273449 0.280971 0.330429 0.34344 0.280971 0.287985 0.34344 0.353195 0.23103 0.237397 0.287985 0.296992 0.237397 0.244182 0.296992 0.306065 0.287985 0.296992 0.353195 0.364233 0.296992 0.306065 0.364233 0.37491 0.244182 0.251427 0.306065 0.314875 0.251427 0.259128 0.314875 0.324492 0.306065 0.314875 0.37491 0.385402 0.314875 0.324492 0.385402 0.397173 0.353195 0.364233 0.41268 0.42527 0.364233 0.37491 0.42527 0.438393 0.37491 0.385402 0.438393 0.451617 0.385402 0.397173 0.451617 0.464863 0.259099 0.324461 0.267108 0.334667 0.324461 0.397147 0.334667 0.409572 0.334667 0.409572 0.346105 0.420143 0.397147 0.464847 0.409572 0.478797 0.409572 0.478797 0.420143 0.490583 0.346105 0.420143 0.357186 0.433169 0.357186 0.433169 0.369641 0.446505 0.433169 0.50468 0.446505 0.518739 0.205221 0.220768 0.198754 0.203417 0.47433 0.548799 0.49693 0.564202 0.131253 0.147954 0.114039 0.133919 0.147954 0.169263 0.133919 0.159709 0.259128 0.267163 0.324492 0.334721 0.324492 0.334721 0.397173 0.40962 0.334721 0.346175 0.40962 0.420208 0.346175 0.357522 0.420208 0.433157 0.397173 0.40962 0.464863 0.478823 0.40962 0.420208 0.478823 0.490597 0.443925 0.462876 0.518547 0.532204 0.202808 0.224235 0.192529 0.218375 0.169263 0.192529 0.159709 0.181499 0.192529 0.218375 0.181499 0.216016 0.213299 0.260838 0.216055 0.265783 0.216055 0.265783 0.220144 0.27343 0.224235 0.25115 0.218375 0.25063 0.218375 0.25063 0.216016 0.249089 0.213352 0.216092 0.260873 0.26581 0.216092 0.220168 0.26581 0.273449 0.216016 0.249089 0.210433 0.2502 0.210433 0.2502 0.212069 0.252365 0.212069 0.252365 0.211141 0.256253 0.211141 0.256253 0.213299 0.260838 0.205221 0.1987 0.220768 0.203478 0.170239 0.159123 0.192258 0.181464 0.202824 0.192258 0.224295 0.218461 0.192258 0.181464 0.218461 0.216245 0.224295 0.218461 0.251193 0.250685 0.218461 0.216245 0.250685 0.249128 0.216245 0.21056 0.249128 0.250246 0.21056 0.212117 0.250246 0.252416 0.212117 0.211189 0.252416 0.256299 0.211189 0.213352 0.256299 0.260873 0.160834 0.177737 0.137835 0.154635 0.193164 0.24738 0.208178 0.262806 0.24738 0.30784 0.262806 0.324665 0.208178 0.262806 0.228072 0.28367 0.262806 0.324665 0.28367 0.343935 0.228072 0.28367 0.255793 0.308944 0.19315 0.208182 0.247298 0.263351 0.247298 0.263351 0.308013 0.324838 0.208182 0.228069 0.263351 0.284432 0.228069 0.255798 0.284432 0.308832 0.1309 0.114065 0.150433 0.133444 0.150433 0.133444 0.170239 0.159123 0.111939 0.127486 0.0988162 0.113321 0.127486 0.143033 0.113321 0.128099 0.0988162 0.113321 0.087231 0.0946973 0.143033 0.15858 0.128099 0.145168 0.15858 0.174127 0.145168 0.160834 0.128099 0.145168 0.104844 0.121377 0.145168 0.160834 0.121377 0.137835 0.087231 0.0946973 0.0706749 0.0850212 0.0946973 0.104844 0.0850212 0.0980804 0.0706749 0.0850212 0.0566033 0.0686703 0.0850212 0.0980804 0.0686703 0.0822684 0.104844 0.121377 0.0980804 0.113855 0.121377 0.137835 0.113855 0.131253 0.0980804 0.113855 0.0822684 0.0968964 0.113855 0.131253 0.0968964 0.114039 0.111939 0.0988383 0.127486 0.113354 0.0988383 0.0872688 0.113354 0.0947614 0.127486 0.113354 0.143033 0.128118 0.0872688 0.070734 0.0947614 0.0851023 0.070734 0.0566679 0.0851023 0.0687501 0.0947614 0.0851023 0.104883 0.098147 0.0851023 0.0687501 0.098147 0.0823526 0.143033 0.128118 0.15858 0.14519 0.128118 0.104883 0.14519 0.121501 0.15858 0.14519 0.174127 0.160995 0.14519 0.121501 0.160995 0.137684 0.104883 0.098147 0.121501 0.113933 0.098147 0.0823526 0.113933 0.0970159 0.121501 0.113933 0.137684 0.1309 0.113933 0.0970159 0.1309 0.114065 0.0822684 0.0968964 0.071465 0.0826952 0.0968964 0.114039 0.0826952 0.10133 0.071465 0.0826952 0.0589783 0.0749842 0.0826952 0.10133 0.0749842 0.0927516 0.0823526 0.0715533 0.0970159 0.0827888 0.0715533 0.0590713 0.0827888 0.0750815 0.0970159 0.0827888 0.114065 0.101429 0.0827888 0.0750815 0.101429 0.0928575 0.0416722 0.0491378 0.0345391 0.0415416 0.0491378 0.0566033 0.0415416 0.0485442 0.0345391 0.0415416 0.0274059 0.0339455 0.0415416 0.0485442 0.0339455 0.040485 0.0417112 0.0345785 0.0491895 0.041594 0.0345785 0.0274459 0.041594 0.0339985 0.0491895 0.041594 0.0566679 0.0486095 0.041594 0.0339985 0.0486095 0.040551 0.0589783 0.0749842 0.0520135 0.0680603 0.0749842 0.0927516 0.0680603 0.0862902 0.0520135 0.0680603 0.0442199 0.0607678 0.0680603 0.0862902 0.0607678 0.0791669 0.026475 0.0353474 0.0229057 0.0316927 0.0353474 0.0442199 0.0316927 0.0404797 0.0229057 0.0316927 0.0193364 0.028038 0.0316927 0.0404797 0.028038 0.0367395 0.0265202 0.0229427 0.0354024 0.0317358 0.0229427 0.0193652 0.0317358 0.0280693 0.0354024 0.0317358 0.0442846 0.040529 0.0317358 0.0280693 0.040529 0.0367734 0.0590713 0.0520965 0.0750815 0.0681472 0.0520965 0.0442846 0.0681472 0.0608329 0.0750815 0.0681472 0.0928575 0.0863791 0.0681472 0.0608329 0.0863791 0.0792335 0.0157075 0.0210912 0.0130696 0.0179877 0.0210912 0.026475 0.0179877 0.0229057 0.0130696 0.0179877 0.0104318 0.0148841 0.0179877 0.0229057 0.0148841 0.0193364 0.0104318 0.0148841 0.00867352 0.0130093 0.0148841 0.0193364 0.0130093 0.017345 0.00867352 0.0130093 0.00691525 0.0111344 0.0130093 0.017345 0.0111344 0.0153536 0.00691525 0.0111344 0.00657588 0.0109074 0.0111344 0.0153536 0.0109074 0.015239 0.00657588 0.0109074 0.0062365 0.0106805 0.0109074 0.015239 0.0106805 0.0151244 0.0442199 0.0607678 0.0404797 0.0572921 0.0607678 0.0791669 0.0572921 0.0764155 0.0404797 0.0572921 0.0367395 0.0540911 0.0572921 0.0764155 0.0540911 0.0738079 0.0062365 0.0106805 0.00670192 0.01125 0.0106805 0.0151244 0.01125 0.015798 0.00670192 0.01125 0.00716733 0.0118195 0.01125 0.015798 0.0118195 0.0164716 0.0367395 0.0540911 0.0356011 0.0529667 0.0540911 0.0738079 0.0529667 0.0733331 0.0356011 0.0529667 0.0349553 0.0530631 0.0529667 0.0733331 0.0530631 0.0735449 0.0157378 0.0130934 0.021129 0.018018 0.0130934 0.0104491 0.018018 0.0149071 0.021129 0.018018 0.0265202 0.0229427 0.018018 0.0149071 0.0229427 0.0193652 0.0349553 0.0530631 0.0348109 0.0534748 0.0530631 0.0735449 0.0534748 0.0746278 0.0348109 0.0534748 0.0352261 0.0544493 0.0534748 0.0746278 0.0544493 0.0762474 0.0104491 0.00868556 0.0149071 0.0130249 0.00868556 0.00692205 0.0130249 0.0111426 0.0149071 0.0130249 0.0193652 0.0173641 0.0130249 0.0111426 0.0173641 0.0153631 0.0352261 0.0544493 0.0362545 0.0560624 0.0544493 0.0762474 0.0560624 0.0784958 0.0362545 0.0560624 0.0378189 0.0582304 0.0560624 0.0784958 0.0582304 0.0812725 0.00692205 0.00658014 0.0111426 0.0109123 0.00658014 0.00623823 0.0109123 0.0106819 0.0111426 0.0109123 0.0153631 0.0152444 0.0109123 0.0106819 0.0152444 0.0151256 0.00623823 0.00670231 0.0106819 0.0112497 0.00670231 0.00716639 0.0112497 0.0118174 0.0106819 0.0112497 0.0151256 0.015797 0.0112497 0.0118174 0.015797 0.0164684 0.0442846 0.040529 0.0608329 0.0573475 0.040529 0.0367734 0.0573475 0.0541266 0.0608329 0.0573475 0.0792335 0.0764738 0.0573475 0.0541266 0.0764738 0.0738451 0.0367734 0.0356251 0.0541266 0.0529922 0.0356251 0.0349687 0.0529922 0.053077 0.0541266 0.0529922 0.0738451 0.0733588 0.0529922 0.053077 0.0733588 0.0735581 0.00274267 0.004955 0.00495453 0.00698983 0.004955 0.00716733 0.00698983 0.00902512 0.00495453 0.00698983 0.00716639 0.00902465 0.00698983 0.00902512 0.00902465 0.0108829 0.00716733 0.0118195 0.00902512 0.014002 0.0118195 0.0164716 0.014002 0.0189788 0.00902512 0.014002 0.0108829 0.0161845 0.014002 0.0189788 0.0161845 0.021486 0.0349687 0.0348168 0.053077 0.0534804 0.0348168 0.0352264 0.0534804 0.0544495 0.053077 0.0534804 0.0735581 0.0746327 0.0534804 0.0544495 0.0746327 0.0762477 0.0352264 0.0362516 0.0544495 0.0560591 0.0362516 0.0378146 0.0560591 0.0582265 0.0544495 0.0560591 0.0762477 0.0784933 0.0560591 0.0582265 0.0784933 0.0812717 0.00716639 0.00902465 0.0118174 0.0140004 0.00902465 0.0108829 0.0140004 0.0161833 0.0118174 0.0140004 0.0164684 0.0189761 0.0140004 0.0161833 0.0189761 0.0214837 0.0378189 0.0582304 0.0401772 0.0611744 0.0582304 0.0812725 0.0611744 0.0847719 0.0401772 0.0611744 0.0434019 0.0649726 0.0611744 0.0847719 0.0649726 0.0890889 0.0434019 0.0649726 0.0486074 0.0707124 0.0649726 0.0890889 0.0707124 0.0952717 0.0486074 0.0707124 0.0556846 0.0783329 0.0707124 0.0952717 0.0783329 0.103232 0.0378146 0.0401731 0.0582265 0.0611709 0.0401731 0.043398 0.0611709 0.0649692 0.0582265 0.0611709 0.0812717 0.0847732 0.0611709 0.0649692 0.0847732 0.0890917 0.043398 0.0486058 0.0649692 0.0707105 0.0486058 0.0556841 0.0707105 0.0783282 0.0649692 0.0707105 0.0890917 0.0952745 0.0707105 0.0783282 0.0952745 0.103225 0.0330974 0.0429079 0.0429056 0.0535289 0.0429079 0.0556846 0.0535289 0.0663896 0.0429056 0.0535289 0.0556841 0.06639 0.0556846 0.0783329 0.0663896 0.0896188 0.0783329 0.103232 0.0896188 0.114821 0.0663896 0.0896188 0.0798009 0.103288 0.0896188 0.114821 0.103288 0.128583 0.0556841 0.06639 0.0783282 0.0896132 0.06639 0.0798009 0.0896132 0.10328 0.0783282 0.0896132 0.103225 0.114805 0.0896132 0.10328 0.114805 0.128556 0.0798009 0.103288 0.10328 0.1264 0.103288 0.128583 0.1264 0.151907 0.10328 0.1264 0.128556 0.151882 0.1264 0.151907 0.151882 0.17756 0 0.00310941 0.00409507 0.0101575 0.00310941 0.0186565 0.0101575 0.0207846 0.00409507 0.0101575 0.00968333 0.0126546 0.0101575 0.0207846 0.0126546 0.0198675 0 0.00409611 0.00310941 0.0101593 0.00409611 0.0096856 0.0101593 0.0126576 0.00310941 0.0101593 0.0186565 0.0207879 0.0101593 0.0126576 0.0207879 0.0198729 0.420143 0.455363 0.426656 0.462144 0.455363 0.490583 0.462144 0.497632 0.426656 0.462144 0.433169 0.468925 0.462144 0.497632 0.468925 0.50468 0.330416 0.364704 0.337182 0.364258 0.364704 0.376763 0.364258 0.383459 0.337182 0.364258 0.343432 0.370791 0.364258 0.383459 0.370791 0.389774 0.343432 0.370791 0.348213 0.377133 0.370791 0.389774 0.377133 0.404942 0.348213 0.377133 0.353191 0.382152 0.377133 0.404942 0.382152 0.412678 0.389774 0.438989 0.404942 0.43083 0.438989 0.469522 0.43083 0.477295 0.404942 0.43083 0.412678 0.43801 0.43083 0.477295 0.43801 0.485069 0.376763 0.42351 0.383459 0.430846 0.42351 0.453974 0.430846 0.461748 0.383459 0.430846 0.389774 0.438989 0.430846 0.461748 0.438989 0.469522 0.412678 0.43801 0.418935 0.44514 0.43801 0.485069 0.44514 0.492842 0.418935 0.44514 0.425269 0.452103 0.44514 0.492842 0.452103 0.500616 0.446505 0.482622 0.452588 0.489341 0.482622 0.518739 0.489341 0.526095 0.452588 0.489341 0.458671 0.496061 0.489341 0.526095 0.496061 0.533451 0.425269 0.452103 0.431808 0.45908 0.452103 0.500616 0.45908 0.508389 0.431808 0.45908 0.438391 0.466087 0.45908 0.508389 0.466087 0.516163 0.458671 0.496061 0.466501 0.503813 0.496061 0.533451 0.503813 0.541125 0.466501 0.503813 0.47433 0.511564 0.503813 0.541125 0.511564 0.548799 0.438391 0.466087 0.444994 0.473107 0.466087 0.516163 0.473107 0.523936 0.444994 0.473107 0.451611 0.480132 0.473107 0.523936 0.480132 0.53171 0.198754 0.200827 0.186007 0.195036 0.200827 0.203417 0.195036 0.20367 0.186007 0.195036 0.172283 0.187812 0.195036 0.20367 0.187812 0.202808 0.451611 0.480132 0.458227 0.487162 0.480132 0.53171 0.487162 0.539483 0.458227 0.487162 0.464847 0.494227 0.487162 0.539483 0.494227 0.547257 0.420208 0.426682 0.455403 0.462139 0.426682 0.433157 0.462139 0.468875 0.455403 0.462139 0.490597 0.497595 0.462139 0.468875 0.497595 0.504593 0.330429 0.337192 0.364713 0.364265 0.337192 0.34344 0.364265 0.370796 0.364713 0.364265 0.376769 0.383463 0.364265 0.370796 0.383463 0.389778 0.34344 0.348218 0.370796 0.377137 0.348218 0.353195 0.377137 0.382155 0.370796 0.377137 0.389778 0.404944 0.377137 0.382155 0.404944 0.41268 0.389778 0.404944 0.438991 0.430832 0.404944 0.41268 0.430832 0.438011 0.438991 0.430832 0.469522 0.477295 0.430832 0.438011 0.477295 0.485069 0.433157 0.438541 0.468875 0.475056 0.438541 0.443925 0.475056 0.481236 0.468875 0.475056 0.504593 0.51157 0.475056 0.481236 0.51157 0.518547 0.376769 0.383463 0.423513 0.430849 0.383463 0.389778 0.430849 0.438991 0.423513 0.430849 0.453974 0.461748 0.430849 0.438991 0.461748 0.469522 0.41268 0.418937 0.438011 0.44514 0.418937 0.42527 0.44514 0.452103 0.438011 0.44514 0.485069 0.492842 0.44514 0.452103 0.492842 0.500616 0.42527 0.431809 0.452103 0.45908 0.431809 0.438393 0.45908 0.466088 0.452103 0.45908 0.500616 0.508389 0.45908 0.466088 0.508389 0.516163 0.260838 0.285848 0.263311 0.28913 0.285848 0.310858 0.28913 0.314949 0.263311 0.28913 0.265783 0.292411 0.28913 0.314949 0.292411 0.31904 0.137835 0.145741 0.134251 0.143254 0.145741 0.154635 0.143254 0.151448 0.134251 0.143254 0.131253 0.138912 0.143254 0.151448 0.138912 0.147954 0.438393 0.444998 0.466088 0.473109 0.444998 0.451617 0.473109 0.480135 0.466088 0.473109 0.516163 0.523936 0.473109 0.480135 0.523936 0.53171 0.451617 0.458237 0.480135 0.487167 0.458237 0.464863 0.487167 0.494234 0.480135 0.487167 0.53171 0.539483 0.487167 0.494234 0.539483 0.547257 0.154635 0.16366 0.151448 0.161861 0.16366 0.172283 0.161861 0.170947 0.151448 0.161861 0.147954 0.157948 0.161861 0.170947 0.157948 0.169263 0.464847 0.494227 0.471769 0.501328 0.494227 0.547257 0.501328 0.55503 0.471769 0.501328 0.478797 0.508296 0.501328 0.55503 0.508296 0.562804 0.265783 0.292411 0.269607 0.297167 0.292411 0.31904 0.297167 0.324728 0.269607 0.297167 0.27343 0.301923 0.297167 0.324728 0.301923 0.330416 0.478797 0.508296 0.483877 0.515309 0.508296 0.562804 0.515309 0.570577 0.483877 0.515309 0.490583 0.522331 0.515309 0.570577 0.522331 0.578351 0.25115 0.263083 0.25089 0.264228 0.263083 0.275015 0.264228 0.277567 0.25089 0.264228 0.25063 0.265374 0.264228 0.277567 0.265374 0.280118 0.490583 0.522331 0.497632 0.529527 0.522331 0.578351 0.529527 0.586125 0.497632 0.529527 0.50468 0.536706 0.529527 0.586125 0.536706 0.593898 0.25063 0.265374 0.24986 0.265857 0.265374 0.280118 0.265857 0.281855 0.24986 0.265857 0.249089 0.266341 0.265857 0.281855 0.266341 0.283592 0.50468 0.536706 0.511223 0.54395 0.536706 0.593898 0.54395 0.601672 0.511223 0.54395 0.518739 0.551255 0.54395 0.601672 0.551255 0.609445 0.260873 0.263342 0.285878 0.289156 0.263342 0.26581 0.289156 0.292434 0.285878 0.289156 0.310882 0.31497 0.289156 0.292434 0.31497 0.319058 0.518739 0.551255 0.526095 0.558678 0.551255 0.609445 0.558678 0.617219 0.526095 0.558678 0.533451 0.566142 0.558678 0.617219 0.566142 0.624992 0.172283 0.187812 0.170947 0.184614 0.187812 0.202808 0.184614 0.197352 0.170947 0.184614 0.169263 0.180357 0.184614 0.197352 0.180357 0.192529 0.533451 0.566142 0.541125 0.57365 0.566142 0.624992 0.57365 0.632766 0.541125 0.57365 0.548799 0.581173 0.57365 0.632766 0.581173 0.640539 0.26581 0.26963 0.292434 0.297187 0.26963 0.273449 0.297187 0.301939 0.292434 0.297187 0.319058 0.324743 0.297187 0.301939 0.324743 0.330429 0.249089 0.266341 0.249645 0.267936 0.266341 0.283592 0.267936 0.286227 0.249645 0.267936 0.2502 0.269532 0.267936 0.286227 0.269532 0.288863 0.548799 0.581173 0.556203 0.588747 0.581173 0.640539 0.588747 0.648313 0.556203 0.588747 0.564202 0.596511 0.588747 0.648313 0.596511 0.656086 0.49693 0.532181 0.505612 0.540477 0.532181 0.564202 0.540477 0.574252 0.505612 0.540477 0.514372 0.556204 0.540477 0.574252 0.556204 0.567044 0.564202 0.596511 0.574252 0.604009 0.596511 0.656086 0.604009 0.66386 0.574252 0.604009 0.567044 0.633162 0.604009 0.66386 0.633162 0.671633 0.2502 0.269532 0.251283 0.271705 0.269532 0.288863 0.271705 0.292128 0.251283 0.271705 0.252365 0.273879 0.271705 0.292128 0.273879 0.295394 0.252365 0.273879 0.254309 0.276695 0.273879 0.295394 0.276695 0.299081 0.254309 0.276695 0.256253 0.27951 0.276695 0.299081 0.27951 0.302768 0.464863 0.471787 0.494234 0.501338 0.471787 0.478823 0.501338 0.508309 0.494234 0.501338 0.547257 0.55503 0.501338 0.508309 0.55503 0.562804 0.478823 0.483905 0.508309 0.515323 0.483905 0.490597 0.515323 0.52234 0.508309 0.515323 0.562804 0.570577 0.515323 0.52234 0.570577 0.578351 0.256253 0.27951 0.258546 0.282679 0.27951 0.302768 0.282679 0.306813 0.258546 0.282679 0.260838 0.285848 0.282679 0.306813 0.285848 0.310858 0.251193 0.250939 0.263116 0.264265 0.250939 0.250685 0.264265 0.265415 0.263116 0.264265 0.275038 0.277592 0.264265 0.265415 0.277592 0.280145 0.490597 0.497595 0.52234 0.529534 0.497595 0.504593 0.529534 0.536756 0.52234 0.529534 0.578351 0.586125 0.529534 0.536756 0.586125 0.593898 0.504593 0.51157 0.536756 0.54397 0.51157 0.518547 0.54397 0.551121 0.536756 0.54397 0.593898 0.601672 0.54397 0.551121 0.601672 0.609445 0.250685 0.249906 0.265415 0.265895 0.249906 0.249128 0.265895 0.266375 0.265415 0.265895 0.280145 0.281884 0.265895 0.266375 0.281884 0.283623 0.249128 0.249687 0.266375 0.