# vtk DataFile Version 3.0
#This file was generated by the deal.II library on 2015/5/12 at 16: 3:48
ASCII
DATASET UNSTRUCTURED_GRID

POINTS 2512 double
0 0 0
5 0 0
0 5 0
5 5 0
5 0 0
10 0 0
5 5 0
10 5 0
0 5 0
5 5 0
0 10 0
5 10 0
5 5 0
10 5 0
5 10 0
10 10 0
0 -5 0
2.5 -5 0
0 -2.5 0
2.5 -2.5 0
2.5 -5 0
5 -5 0
2.5 -2.5 0
5 -2.5 0
0 -2.5 0
2.5 -2.5 0
0 0 0
2.5 0 0
2.5 -2.5 0
5 -2.5 0
2.5 0 0
5 0 0
5 -5 0
7.5 -5 0
5 -2.5 0
7.5 -2.5 0
7.5 -5 0
10 -5 0
7.5 -2.5 0
10 -2.5 0
5 -2.5 0
7.5 -2.5 0
5 0 0
7.5 0 0
7.5 -2.5 0
10 -2.5 0
7.5 0 0
10 0 0
-5 0 0
-2.5 0 0
-5 2.5 0
-2.5 2.5 0
-2.5 0 0
0 0 0
-2.5 2.5 0
0 2.5 0
-5 2.5 0
-2.5 2.5 0
-5 5 0
-2.5 5 0
-2.5 2.5 0
0 2.5 0
-2.5 5 0
0 5 0
-5 -5 0
-2.5 -5 0
-5 -2.5 0
-2.5 -2.5 0
-2.5 -5 0
0 -5 0
-2.5 -2.5 0
0 -2.5 0
-5 -2.5 0
-2.5 -2.5 0
-5 0 0
-2.5 0 0
-2.5 -2.5 0
0 -2.5 0
-2.5 0 0
0 0 0
-2.5 5 0
0 5 0
-2.5 7.5 0
0 7.5 0
-5 7.5 0
-2.5 7.5 0
-5 10 0
-2.5 10 0
-2.5 7.5 0
0 7.5 0
-2.5 10 0
0 10 0
2.5 -7.5 0
3.75 -7.5 0
2.5 -6.25 0
3.75 -6.25 0
3.75 -7.5 0
5 -7.5 0
3.75 -6.25 0
5 -6.25 0
2.5 -6.25 0
3.75 -6.25 0
2.5 -5 0
3.75 -5 0
3.75 -6.25 0
5 -6.25 0
3.75 -5 0
5 -5 0
-7.5 -7.5 0
-6.25 -7.5 0
-7.5 -6.25 0
-6.25 -6.25 0
-6.25 -7.5 0
-5 -7.5 0
-6.25 -6.25 0
-5 -6.25 0
-7.5 -6.25 0
-6.25 -6.25 0
-7.5 -5 0
-6.25 -5 0
-6.25 -6.25 0
-5 -6.25 0
-6.25 -5 0
-5 -5 0
0 -7.5 0
1.25 -7.5 0
0 -6.25 0
1.25 -6.25 0
1.25 -7.5 0
2.5 -7.5 0
1.25 -6.25 0
2.5 -6.25 0
0 -6.25 0
1.25 -6.25 0
0 -5 0
1.25 -5 0
1.25 -6.25 0
2.5 -6.25 0
1.25 -5 0
2.5 -5 0
-7.5 0 0
-6.25 0 0
-7.5 1.25 0
-6.25 1.25 0
-6.25 0 0
-5 0 0
-6.25 1.25 0
-5 1.25 0
-7.5 1.25 0
-6.25 1.25 0
-7.5 2.5 0
-6.25 2.5 0
-6.25 1.25 0
-5 1.25 0
-6.25 2.5 0
-5 2.5 0
-5 -7.5 0
-3.75 -7.5 0
-5 -6.25 0
-3.75 -6.25 0
-3.75 -7.5 0
-2.5 -7.5 0
-3.75 -6.25 0
-2.5 -6.25 0
-5 -6.25 0
-3.75 -6.25 0
-5 -5 0
-3.75 -5 0
-3.75 -6.25 0
-2.5 -6.25 0
-3.75 -5 0
-2.5 -5 0
5 -7.5 0
6.25 -7.5 0
5 -6.25 0
6.25 -6.25 0
6.25 -7.5 0
7.5 -7.5 0
6.25 -6.25 0
7.5 -6.25 0
5 -6.25 0
6.25 -6.25 0
5 -5 0
6.25 -5 0
6.25 -6.25 0
7.5 -6.25 0
6.25 -5 0
7.5 -5 0
-7.5 2.5 0
-6.25 2.5 0
-7.5 3.75 0
-6.25 3.75 0
-6.25 2.5 0
-5 2.5 0
-6.25 3.75 0
-5 3.75 0
-6.25 3.75 0
-5 3.75 0
-6.25 5 0
-5 5 0
-7.5 -5 0
-6.25 -5 0
-7.5 -3.75 0
-6.25 -3.75 0
-6.25 -5 0
-5 -5 0
-6.25 -3.75 0
-5 -3.75 0
-7.5 -3.75 0
-6.25 -3.75 0
-7.5 -2.5 0
-6.25 -2.5 0
-6.25 -3.75 0
-5 -3.75 0
-6.25 -2.5 0
-5 -2.5 0
-10 5 0
-8.75 5 0
-10 6.25 0
-8.75 6.25 0
-10 6.25 0
-8.75 6.25 0
-10 7.5 0
-8.75 7.5 0
-8.75 6.25 0
-7.5 6.25 0
-8.75 7.5 0
-7.5 7.5 0
7.5 -10 0
8.75 -10 0
7.5 -8.75 0
8.75 -8.75 0
8.75 -10 0
10 -10 0
8.75 -8.75 0
10 -8.75 0
7.5 -8.75 0
8.75 -8.75 0
7.5 -7.5 0
8.75 -7.5 0
8.75 -8.75 0
10 -8.75 0
8.75 -7.5 0
10 -7.5 0
-6.25 5 0
-5 5 0
-6.25 6.25 0
-5 6.25 0
-7.5 6.25 0
-6.25 6.25 0
-7.5 7.5 0
-6.25 7.5 0
-6.25 6.25 0
-5 6.25 0
-6.25 7.5 0
-5 7.5 0
-2.5 -7.5 0
-1.25 -7.5 0
-2.5 -6.25 0
-1.25 -6.25 0
-1.25 -7.5 0
0 -7.5 0
-1.25 -6.25 0
0 -6.25 0
-2.5 -6.25 0
-1.25 -6.25 0
-2.5 -5 0
-1.25 -5 0
-1.25 -6.25 0
0 -6.25 0
-1.25 -5 0
0 -5 0
-7.5 -2.5 0
-6.25 -2.5 0
-7.5 -1.25 0
-6.25 -1.25 0
-6.25 -2.5 0
-5 -2.5 0
-6.25 -1.25 0
-5 -1.25 0
-7.5 -1.25 0
-6.25 -1.25 0
-7.5 0 0
-6.25 0 0
-6.25 -1.25 0
-5 -1.25 0
-6.25 0 0
-5 0 0
-10 7.5 0
-8.75 7.5 0
-10 8.75 0
-8.75 8.75 0
-8.75 7.5 0
-7.5 7.5 0
-8.75 8.75 0
-7.5 8.75 0
-10 8.75 0
-8.75 8.75 0
-10 10 0
-8.75 10 0
-8.75 8.75 0
-7.5 8.75 0
-8.75 10 0
-7.5 10 0
-7.5 7.5 0
-6.25 7.5 0
-7.5 8.75 0
-6.25 8.75 0
-6.25 7.5 0
-5 7.5 0
-6.25 8.75 0
-5 8.75 0
-7.5 8.75 0
-6.25 8.75 0
-7.5 10 0
-6.25 10 0
-6.25 8.75 0
-5 8.75 0
-6.25 10 0
-5 10 0
8.75 -7.5 0
10 -7.5 0
8.75 -6.25 0
10 -6.25 0
7.5 -6.25 0
8.75 -6.25 0
7.5 -5 0
8.75 -5 0
8.75 -6.25 0
10 -6.25 0
8.75 -5 0
10 -5 0
-5 5 0
-3.75 5 0
-5 6.25 0
-3.75 6.25 0
-3.75 5 0
-2.5 5 0
-3.75 6.25 0
-2.5 6.25 0
-5 6.25 0
-3.75 6.25 0
-5 7.5 0
-3.75 7.5 0
-3.75 6.25 0
-2.5 6.25 0
-3.75 7.5 0
-2.5 7.5 0
-7.5 -8.75 0
-6.875 -8.75 0
-7.5 -8.125 0
-6.875 -8.125 0
-7.5 -8.125 0
-6.875 -8.125 0
-7.5 -7.5 0
-6.875 -7.5 0
-6.875 -8.125 0
-6.25 -8.125 0
-6.875 -7.5 0
-6.25 -7.5 0
0.625 -8.75 0
1.25 -8.75 0
0.625 -8.125 0
1.25 -8.125 0
0 -8.125 0
0.625 -8.125 0
0 -7.5 0
0.625 -7.5 0
0.625 -8.125 0
1.25 -8.125 0
0.625 -7.5 0
1.25 -7.5 0
1.25 -8.75 0
1.875 -8.75 0
1.25 -8.125 0
1.875 -8.125 0
1.875 -8.75 0
2.5 -8.75 0
1.875 -8.125 0
2.5 -8.125 0
1.25 -8.125 0
1.875 -8.125 0
1.25 -7.5 0
1.875 -7.5 0
1.875 -8.125 0
2.5 -8.125 0
1.875 -7.5 0
2.5 -7.5 0
-6.25 -8.125 0
-5.625 -8.125 0
-6.25 -7.5 0
-5.625 -7.5 0
-5.625 -8.125 0
-5 -8.125 0
-5.625 -7.5 0
-5 -7.5 0
-8.125 0 0
-7.5 0 0
-8.125 0.625 0
-7.5 0.625 0
-8.75 0.625 0
-8.125 0.625 0
-8.75 1.25 0
-8.125 1.25 0
-8.125 0.625 0
-7.5 0.625 0
-8.125 1.25 0
-7.5 1.25 0
-8.75 1.25 0
-8.125 1.25 0
-8.75 1.875 0
-8.125 1.875 0
-8.125 1.25 0
-7.5 1.25 0
-8.125 1.875 0
-7.5 1.875 0
-8.75 1.875 0
-8.125 1.875 0
-8.75 2.5 0
-8.125 2.5 0
-8.125 1.875 0
-7.5 1.875 0
-8.125 2.5 0
-7.5 2.5 0
-8.75 -7.5 0
-8.125 -7.5 0
-8.75 -6.875 0
-8.125 -6.875 0
-8.125 -7.5 0
-7.5 -7.5 0
-8.125 -6.875 0
-7.5 -6.875 0
-8.125 -6.875 0
-7.5 -6.875 0
-8.125 -6.25 0
-7.5 -6.25 0
-8.125 -6.25 0
-7.5 -6.25 0
-8.125 -5.625 0
-7.5 -5.625 0
-8.125 -5.625 0
-7.5 -5.625 0
-8.125 -5 0
-7.5 -5 0
-4.375 -8.75 0
-3.75 -8.75 0
-4.375 -8.125 0
-3.75 -8.125 0
-5 -8.125 0
-4.375 -8.125 0
-5 -7.5 0
-4.375 -7.5 0
-4.375 -8.125 0
-3.75 -8.125 0
-4.375 -7.5 0
-3.75 -7.5 0
-8.125 -8.75 0
-7.5 -8.75 0
-8.125 -8.125 0
-7.5 -8.125 0
-8.75 -8.125 0
-8.125 -8.125 0
-8.75 -7.5 0
-8.125 -7.5 0
-8.125 -8.125 0
-7.5 -8.125 0
-8.125 -7.5 0
-7.5 -7.5 0
-3.75 -8.75 0
-3.125 -8.75 0
-3.75 -8.125 0
-3.125 -8.125 0
-3.125 -8.75 0
-2.5 -8.75 0
-3.125 -8.125 0
-2.5 -8.125 0
-3.75 -8.125 0
-3.125 -8.125 0
-3.75 -7.5 0
-3.125 -7.5 0
-3.125 -8.125 0
-2.5 -8.125 0
-3.125 -7.5 0
-2.5 -7.5 0
-8.125 2.5 0
-7.5 2.5 0
-8.125 3.125 0
-7.5 3.125 0
-8.125 3.125 0
-7.5 3.125 0
-8.125 3.75 0
-7.5 3.75 0
-8.125 -5 0
-7.5 -5 0
-8.125 -4.375 0
-7.5 -4.375 0
-8.75 -4.375 0
-8.125 -4.375 0
-8.75 -3.75 0
-8.125 -3.75 0
-8.125 -4.375 0
-7.5 -4.375 0
-8.125 -3.75 0
-7.5 -3.75 0
-10 3.75 0
-9.375 3.75 0
-10 4.375 0
-9.375 4.375 0
-10 4.375 0
-9.375 4.375 0
-10 5 0
-9.375 5 0
-9.375 4.375 0
-8.75 4.375 0
-9.375 5 0
-8.75 5 0
-8.75 3.75 0
-8.125 3.75 0
-8.75 4.375 0
-8.125 4.375 0
-8.125 3.75 0
-7.5 3.75 0
-8.125 4.375 0
-7.5 4.375 0
-8.75 4.375 0
-8.125 4.375 0
-8.75 5 0
-8.125 5 0
-8.125 4.375 0
-7.5 4.375 0
-8.125 5 0
-7.5 5 0
3.125 -10 0
3.75 -10 0
3.125 -9.375 0
3.75 -9.375 0
3.125 -8.75 0
3.75 -8.75 0
3.125 -8.125 0
3.75 -8.125 0
2.5 -8.125 0
3.125 -8.125 0
2.5 -7.5 0
3.125 -7.5 0
3.125 -8.125 0
3.75 -8.125 0
3.125 -7.5 0
3.75 -7.5 0
5 -8.125 0
5.625 -8.125 0
5 -7.5 0
5.625 -7.5 0
5.625 -8.125 0
6.25 -8.125 0
5.625 -7.5 0
6.25 -7.5 0
-10 1.25 0
-9.375 1.25 0
-10 1.875 0
-9.375 1.875 0
5.625 -10 0
6.25 -10 0
5.625 -9.375 0
6.25 -9.375 0
5.625 -9.375 0
6.25 -9.375 0
5.625 -8.75 0
6.25 -8.75 0
-2.5 -8.75 0
-1.875 -8.75 0
-2.5 -8.125 0
-1.875 -8.125 0
-2.5 -8.125 0
-1.875 -8.125 0
-2.5 -7.5 0
-1.875 -7.5 0
-1.875 -8.125 0
-1.25 -8.125 0
-1.875 -7.5 0
-1.25 -7.5 0
3.75 -10 0
4.375 -10 0
3.75 -9.375 0
4.375 -9.375 0
4.375 -10 0
5 -10 0
4.375 -9.375 0
5 -9.375 0
3.75 -9.375 0
4.375 -9.375 0
3.75 -8.75 0
4.375 -8.75 0
4.375 -9.375 0
5 -9.375 0
4.375 -8.75 0
5 -8.75 0
-1.25 -8.125 0
-0.625 -8.125 0
-1.25 -7.5 0
-0.625 -7.5 0
-0.625 -8.125 0
0 -8.125 0
-0.625 -7.5 0
0 -7.5 0
-8.75 -3.75 0
-8.125 -3.75 0
-8.75 -3.125 0
-8.125 -3.125 0
-8.125 -3.75 0
-7.5 -3.75 0
-8.125 -3.125 0
-7.5 -3.125 0
-8.75 -3.125 0
-8.125 -3.125 0
-8.75 -2.5 0
-8.125 -2.5 0
-8.125 -3.125 0
-7.5 -3.125 0
-8.125 -2.5 0
-7.5 -2.5 0
-8.75 -2.5 0
-8.125 -2.5 0
-8.75 -1.875 0
-8.125 -1.875 0
-8.125 -2.5 0
-7.5 -2.5 0
-8.125 -1.875 0
-7.5 -1.875 0
-8.125 -1.875 0
-7.5 -1.875 0
-8.125 -1.25 0
-7.5 -1.25 0
-8.125 -1.25 0
-7.5 -1.25 0
-8.125 -0.625 0
-7.5 -0.625 0
-8.125 -0.625 0
-7.5 -0.625 0
-8.125 0 0
-7.5 0 0
3.75 -8.75 0
4.375 -8.75 0
3.75 -8.125 0
4.375 -8.125 0
3.75 -8.125 0
4.375 -8.125 0
3.75 -7.5 0
4.375 -7.5 0
4.375 -8.125 0
5 -8.125 0
4.375 -7.5 0
5 -7.5 0
-8.75 5 0
-8.125 5 0
-8.75 5.625 0
-8.125 5.625 0
-8.75 5.625 0
-8.125 5.625 0
-8.75 6.25 0
-8.125 6.25 0
-8.125 5.625 0
-7.5 5.625 0
-8.125 6.25 0
-7.5 6.25 0
6.25 -8.75 0
6.875 -8.75 0
6.25 -8.125 0
6.875 -8.125 0
6.875 -8.75 0
7.5 -8.75 0
6.875 -8.125 0
7.5 -8.125 0
6.25 -8.125 0
6.875 -8.125 0
6.25 -7.5 0
6.875 -7.5 0
6.875 -8.125 0
7.5 -8.125 0
6.875 -7.5 0
7.5 -7.5 0
6.25 -10 0
6.875 -10 0
6.25 -9.375 0
6.875 -9.375 0
6.875 -10 0
7.5 -10 0
6.875 -9.375 0
7.5 -9.375 0
6.875 -9.375 0
7.5 -9.375 0
6.875 -8.75 0
7.5 -8.75 0
-7.5 3.75 0
-6.875 3.75 0
-7.5 4.375 0
-6.875 4.375 0
-6.875 3.75 0
-6.25 3.75 0
-6.875 4.375 0
-6.25 4.375 0
-7.5 4.375 0
-6.875 4.375 0
-7.5 5 0
-6.875 5 0
-6.875 4.375 0
-6.25 4.375 0
-6.875 5 0
-6.25 5 0
-6.875 5 0
-6.25 5 0
-6.875 5.625 0
-6.25 5.625 0
-7.5 5.625 0
-6.875 5.625 0
-7.5 6.25 0
-6.875 6.25 0
-6.875 5.625 0
-6.25 5.625 0
-6.875 6.25 0
-6.25 6.25 0
7.5 -7.5 0
8.125 -7.5 0
7.5 -6.875 0
8.125 -6.875 0
8.125 -7.5 0
8.75 -7.5 0
8.125 -6.875 0
8.75 -6.875 0
7.5 -6.875 0
8.125 -6.875 0
7.5 -6.25 0
8.125 -6.25 0
8.125 -6.875 0
8.75 -6.875 0
8.125 -6.25 0
8.75 -6.25 0
-10 -10 0
-9.6875 -10 0
-10 -9.6875 0
-9.6875 -9.6875 0
-9.6875 -10 0
-9.375 -10 0
-9.6875 -9.6875 0
-9.375 -9.6875 0
-10 -9.6875 0
-9.6875 -9.6875 0
-10 -9.375 0
-9.6875 -9.375 0
-9.6875 -9.6875 0
-9.375 -9.6875 0
-9.6875 -9.375 0
-9.375 -9.375 0
-9.375 -10 0
-9.0625 -10 0
-9.375 -9.6875 0
-9.0625 -9.6875 0
-9.0625 -10 0
-8.75 -10 0
-9.0625 -9.6875 0
-8.75 -9.6875 0
-9.375 -9.6875 0
-9.0625 -9.6875 0
-9.375 -9.375 0
-9.0625 -9.375 0
-9.0625 -9.6875 0
-8.75 -9.6875 0
-9.0625 -9.375 0
-8.75 -9.375 0
-10 -9.375 0
-9.6875 -9.375 0
-10 -9.0625 0
-9.6875 -9.0625 0
-9.6875 -9.375 0
-9.375 -9.375 0
-9.6875 -9.0625 0
-9.375 -9.0625 0
-10 -9.0625 0
-9.6875 -9.0625 0
-10 -8.75 0
-9.6875 -8.75 0
-9.6875 -9.0625 0
-9.375 -9.0625 0
-9.6875 -8.75 0
-9.375 -8.75 0
-9.375 -9.375 0
-9.0625 -9.375 0
-9.375 -9.0625 0
-9.0625 -9.0625 0
-9.0625 -9.375 0
-8.75 -9.375 0
-9.0625 -9.0625 0
[...]
POINT_DATA 2512
SCALARS V double 1
LOOKUP_TABLE default
0.0159316 -0.00736162 -0.0248097 0.00671467 -0.00736162 0 0.00671467 0 -0.0248097 0.00671467 0 0 0.00671467 0 0 0 0.00112599 0.00962876 0.00939692 0.00756995 0.00962876 0.0268553 0.00756995 0.00502458 0.00939692 0.00756995 0.0159316 0.00428498 0.00756995 0.00502458 0.00428498 -0.00736162 0.0268553 -0.0112233 0.00502458 0.00815559 -0.0112233 0 0.00815559 0 0.00502458 0.00815559 -0.00736162 -0.00368081 0.00815559 0 -0.00368081 0 -0.00241173 0.00729336 0.0534315 0.0312636 0.00729336 0.0159316 0.0312636 -0.00443907 0.0534315 0.0312636 0.0890347 0.0531964 0.0312636 -0.00443907 0.0531964 -0.0248097 0.00676158 0.00300569 0.000180419 0.00599659 0.00300569 0.00112599 0.00599659 0.00939692 0.000180419 0.00599659 -0.00241173 0.00729336 0.00599659 0.00939692 0.00729336 0.0159316 0.0531964 -0.0248097 0.0290929 -0.0124049 0.0374711 0.0290929 0 0 0.0290929 -0.0124049 0 0 0.0240493 0.142059 0.0194345 0.0900367 0.142059 0.0959483 0.0900367 0.135122 0.0194345 0.0900367 0.00962876 0.018242 0.0900367 0.135122 0.018242 0.0268553 0.00279348 -0.000956196 -0.00132026 -0.00811688 -0.000956196 0.00339427 -0.00811688 -0.000810959 -0.00132026 -0.00811688 0.00278957 -0.00127448 -0.00811688 -0.000810959 -0.00127448 0.00676158 0.00630228 0.00412305 0.00150103 0.00364252 0.00412305 0.0240493 0.00364252 0.0194345 0.00150103 0.00364252 0.00112599 0.00537738 0.00364252 0.0194345 0.00537738 0.00962876 -0.0108659 -0.0098928 -0.0315656 -0.0132324 -0.0098928 -0.00241173 -0.0132324 0.0255099 -0.0315656 -0.0132324 -0.130655 -0.0277052 -0.0132324 0.0255099 -0.0277052 0.0534315 0.00339427 0.00201073 -0.000810959 -0.00110679 0.00201073 -0.00055624 -0.00110679 0.000754203 -0.000810959 -0.00110679 0.00676158 0.00488363 -0.00110679 0.000754203 0.00488363 0.00300569 0.0959483 -0.191362 0.135122 -0.0454891 -0.191362 -0.300616 -0.0454891 -0.213795 0.135122 -0.0454891 0.0268553 0.00781597 -0.0454891 -0.213795 0.00781597 -0.0112233 -0.130655 -0.0277052 -0.430368 -0.157253 -0.0277052 0.0534315 -0.157253 0.0712331 -0.157253 0.0712331 -0.314407 0.0890347 0.00278957 -0.00127448 0.00269488 -0.00119461 -0.00127448 0.00676158 -0.00119461 0.003471 0.00269488 -0.00119461 0.000388226 0.000310074 -0.00119461 0.003471 0.000310074 0.000180419 3.44789 1.09699 2.8322 1.10359 2.8322 1.10359 2.2165 0.833723 1.10359 -0.416448 0.833723 -0.383463 2.2165 1.60081 0.702134 0.711643 1.60081 0.985112 0.711643 0.369417 0.702134 0.711643 -0.300616 -0.13999 0.711643 0.369417 -0.13999 0 -0.314407 0.0890347 -0.297077 0.0632529 -0.416448 -0.297077 -0.383463 -0.253329 -0.297077 0.0632529 -0.253329 0.0374711 -0.00055624 0.00202463 0.000754203 0.00113848 0.00202463 0.00630228 0.00113848 0.00150103 0.000754203 0.00113848 0.00300569 0.00206584 0.00113848 0.00150103 0.00206584 0.00112599 0.000388226 0.000310074 -0.00293539 -0.00435556 0.000310074 0.000180419 -0.00435556 -0.00111566 -0.00293539 -0.00435556 -0.0108659 -0.0098928 -0.00435556 -0.00111566 -0.0098928 -0.00241173 2.2165 0.833723 1.60081 0.66944 0.833723 -0.383463 0.66944 -0.197332 1.60081 0.66944 0.985112 0.369417 0.66944 -0.197332 0.369417 0 -0.383463 -0.253329 -0.197332 -0.144692 -0.253329 0.0374711 -0.144692 0.0187355 -0.197332 -0.144692 0 0 -0.144692 0.0187355 0 0 -0.13999 0 -0.123756 0 -0.213795 -0.123756 -0.0112233 -0.00561167 -0.123756 0 -0.00561167 0 0.0890347 0.0711156 0.0632529 0.0521988 0.0711156 0.0531964 0.0521988 0.0411447 0.0632529 0.0521988 0.0374711 0.033282 0.0521988 0.0411447 0.033282 0.0290929 0.149059 0.120113 0.0161874 -0.00213049 0.0161874 -0.00213049 0.00279348 0.000918644 -0.00213049 0.00488113 0.000918644 -0.000956196 0.13888 0.18669 -0.00193856 0.000971386 -0.00346305 -0.00193856 0.00630228 0.00521267 -0.00193856 0.000971386 0.00521267 0.00412305 0.18669 0.208411 0.000971386 -0.00512985 0.208411 0.20911 -0.00512985 0.0010698 0.000971386 -0.00512985 0.00412305 0.0140862 -0.00512985 0.0010698 0.0140862 0.0240493 0.00488113 0.00603194 -0.000956196 0.00121904 0.00603194 0.00644396 0.00121904 0.00339427 -0.0114557 -0.0108659 -0.017906 -0.0212158 0.136267 -0.017906 0.178921 -0.0279228 -0.017906 -0.0212158 -0.0279228 -0.0315656 0.178921 -0.0279228 0.170191 -0.0602834 -0.0279228 -0.0315656 -0.0602834 -0.0811103 0.170191 -0.0602834 0.0652156 -0.178251 -0.0602834 -0.0811103 -0.178251 -0.130655 0.149059 0.0161629 0.120114 -0.00221996 0.0161629 0.00279348 -0.00221996 0.000736611 -0.00221996 0.000736611 0.00470113 -0.00132026 0.00470113 -0.00132026 0.00575953 0.000734655 0.00575953 0.000734655 0.00620215 0.00278957 0.120823 0.141219 0.00124409 0.00550621 0.00644396 0.00124409 0.00339427 0.0027025 0.00124409 0.00550621 0.0027025 0.00201073 0.138864 0.149059 -0.00311361 0.0161874 0.138863 -0.00311361 0.149059 0.0161629 -0.00311361 0.0161874 0.0161629 0.00279348 0.141219 0.138389 0.00550621 0.000735212 0.138389 0.131922 0.000735212 0.00229139 0.00550621 0.000735212 0.00201073 0.000727243 0.000735212 0.00229139 0.000727243 -0.00055624 -0.178251 -0.130655 -0.363261 -0.280512 -0.363261 -0.280512 -0.467636 -0.430368 0.00620215 0.00278957 0.00120636 0.00274223 0.12081 0.00120636 0.141202 0.00578578 0.00120636 0.00274223 0.00578578 0.00269488 4.06359 1.66818 3.75574 1.99209 3.75574 1.99209 3.44789 2.27021 1.99209 0.569632 2.27021 1.09699 0.0683783 -0.467636 0.569632 -0.16661 -0.467636 -0.430368 -0.16661 -0.446624 0.569632 -0.16661 1.09699 0.181487 -0.16661 -0.446624 0.181487 -0.462881 4.37143 4.06359 1.39892 1.26939 0.175841 0.125923 0.0323511 0.0549587 0.0010698 0.0323511 0.0240493 0.083054 0.0323511 0.0549587 0.083054 0.142059 -0.103525 -0.228829 0.0959483 -0.0477069 -0.228829 -0.279643 -0.0477069 -0.191362 5.29498 1.66756 4.98713 1.63203 3.14004 2.8322 1.29342 1.25177 1.29342 1.25177 0.012242 0.0522851 0.131922 0.115584 0.00229139 -0.00530355 0.00229139 -0.00530355 -0.00055624 0.000734194 -0.00530355 -0.00614121 0.000734194 0.00202463 4.06359 3.75574 1.26939 1.28743 3.75574 3.44789 1.28743 1.30519 1.26939 1.28743 0.125923 0.108522 1.28743 1.30519 0.108522 0.0649707 -0.00614121 -0.0044526 0.00202463 0.00416346 -0.0044526 -0.00346305 0.00416346 0.00630228 0.141202 0.00578578 0.138373 0.00137672 0.00578578 0.00269488 0.00137672 0.00154155 0.138373 0.00137672 0.131908 0.00268165 0.00137672 0.00154155 0.00268165 0.000388226 0.131908 0.00268165 0.115577 -0.00614415 0.00268165 0.000388226 -0.00614415 -0.00127358 -0.00614415 -0.00127358 -0.0088664 -0.00293539 -0.0088664 -0.00293539 -0.00887549 -0.00690064 -0.00887549 -0.00690064 -0.0114557 -0.0108659 0.125923 0.108522 0.0549587 -0.0231851 0.0549587 -0.0231851 0.142059 0.119004 -0.0231851 -0.103525 0.119004 0.0959483 1.09699 0.181487 1.13052 0.280366 1.13052 0.280366 1.10359 0.273838 0.280366 -0.415459 0.273838 -0.416448 0.0522851 0.364003 -0.279643 -0.112195 0.364003 0.702134 -0.112195 0.174352 -0.279643 -0.112195 -0.191362 -0.245989 -0.112195 0.174352 -0.245989 -0.300616 2.8322 2.52435 1.25177 1.34419 2.52435 2.2165 1.34419 1.45932 1.34419 1.45932 0.364003 0.702134 -0.430368 -0.293811 -0.446624 -0.341227 -0.293811 -0.157253 -0.341227 -0.23583 -0.446624 -0.341227 -0.462881 -0.388644 -0.341227 -0.23583 -0.388644 -0.314407 -0.388644 -0.314407 -0.489612 -0.305742 -0.415459 -0.489612 -0.416448 -0.425882 -0.489612 -0.305742 -0.425882 -0.297077 -0.300616 -0.220303 -0.257205 -0.194539 -0.220303 -0.13999 -0.194539 -0.131873 -0.257205 -0.194539 -0.213795 -0.168776 -0.194539 -0.131873 -0.168776 -0.123756 10.8362 10.6823 10.6823 8.66524 10.6823 10.5284 8.66524 7.12212 10.6823 8.66524 10.5284 7.12212 8.66524 7.12212 7.12212 4.56459 10.5284 10.3745 7.12212 6.25501 10.3745 10.2205 6.25501 5.88825 7.12212 6.25501 4.56459 3.17976 6.25501 5.88825 3.17976 2.65785 10.5284 7.12212 10.3745 6.25501 7.12212 4.56459 6.25501 3.17976 10.3745 6.25501 10.2205 5.88825 6.25501 3.17976 5.88825 2.65785 4.56459 3.17976 3.17976 1.52984 3.17976 2.65785 1.52984 0.935934 3.17976 1.52984 2.65785 0.935934 1.52984 0.935934 0.935934 0.285565 10.2205 10.0666 5.88825 5.74531 10.0666 9.91269 5.74531 5.65633 5.88825 5.74531 2.65785 2.52608 5.74531 5.65633 2.52608 2.48359 9.91269 9.75877 5.65633 5.56747 9.75877 9.60484 5.56747 5.47668 5.65633 5.56747 2.48359 2.44432 5.56747 5.47668 2.44432 2.39897 2.39897 2.35602 0.747651 0.728024 2.35602 2.31516 0.728024 0.715608 0.747651 0.728024 0.149059 0.143855 0.728024 0.715608 0.143855 0.120113 2.31516 2.27626 0.715608 0.704127 2.27626 2.23847 0.704127 0.692748 0.715608 0.704127 0.120113 0.123115 0.704127 0.692748 0.123115 0.126117 10.2205 5.88825 10.0666 5.74531 5.88825 2.65785 5.74531 2.52608 10.0666 5.74531 9.91269 5.65633 5.74531 2.52608 5.65633 2.48359 2.23847 2.20042 0.692748 0.681494 2.20042 2.16202 0.681494 0.669565 0.692748 0.681494 0.126117 0.124401 0.681494 0.669565 0.124401 0.122685 9.91269 5.65633 9.75877 5.56747 5.65633 2.48359 5.56747 2.44433 9.75877 5.56747 9.60484 5.47668 5.56747 2.44433 5.47668 2.39897 2.16202 2.12388 0.669565 0.657674 2.12388 2.08744 0.657674 0.648423 0.669565 0.657674 0.122685 0.121301 0.657674 0.648423 0.121301 0.119916 9.60484 9.45092 5.47668 5.3867 9.45092 9.29699 5.3867 5.29829 5.47668 5.3867 2.39897 2.35602 5.3867 5.29829 2.35602 2.31516 9.29699 9.14307 5.29829 5.21063 9.14307 8.98915 5.21063 5.12303 5.29829 5.21063 2.31516 2.27626 5.21063 5.12303 2.27626 2.23847 2.39897 0.747655 2.35602 0.728033 0.747655 0.149059 0.728033 0.143855 2.35602 0.728033 2.31517 0.715623 0.728033 0.143855 0.715623 0.120114 2.31517 0.715623 2.27628 0.704149 0.715623 0.120114 0.704149 0.123116 2.27628 0.704149 2.23849 0.692778 0.704149 0.123116 0.692778 0.126117 8.98915 8.83522 5.12303 5.03539 8.83522 8.6813 5.03539 4.94764 5.12303 5.03539 2.23847 2.20042 5.03539 4.94764 2.20042 2.16202 8.6813 8.52738 4.94764 4.85999 8.52738 8.37345 4.85999 4.7731 4.94764 4.85999 2.16202 2.12388 4.85999 4.7731 2.12388 2.08744 2.23849 0.692778 2.20045 0.681531 0.692778 0.126117 0.681531 0.124401 2.20045 0.681531 2.16206 0.669608 0.681531 0.124401 0.669608 0.122685 2.16206 0.669608 2.12392 0.657717 0.669608 0.122685 0.657717 0.121299 2.12392 0.657717 2.08747 0.648458 0.657717 0.121299 0.648458 0.119913 9.60484 5.47668 9.45092 5.3867 5.47668 2.39897 5.3867 2.35602 9.45092 5.3867 9.29699 5.2983 5.3867 2.35602 5.2983 2.31517 2.08744 2.05423 0.648423 0.643778 2.05423 2.0243 0.643778 0.641365 0.648423 0.643778 0.119916 0.12037 0.643778 0.641365 0.12037 0.120823 9.29699 5.2983 9.14307 5.21064 5.2983 2.31517 5.21064 2.27628 9.14307 5.21064 8.98915 5.12304 5.21064 2.27628 5.12304 2.23849 2.65785 2.52608 0.935934 0.797225 2.52608 2.48359 0.797225 0.787511 0.935934 0.797225 0.285565 0.212214 0.797225 0.787511 0.212214 0.138864 8.98915 5.12304 8.83522 5.0354 5.12304 2.23849 5.0354 2.20045 8.83522 5.0354 8.6813 4.94765 5.0354 2.20045 4.94765 2.16206 2.48359 2.44432 0.787511 0.765976 2.44432 2.39897 0.765976 0.747651 0.787511 0.765976 0.138864 0.1622 0.765976 0.747651 0.1622 0.149059 8.6813 4.94765 8.52738 4.86001 4.94765 2.16206 4.86001 2.12392 8.52738 4.86001 8.37345 4.77312 4.86001 2.12392 4.77312 2.08747 2.65785 0.935934 2.52608 0.797226 0.935934 0.285565 0.797226 0.212214 2.52608 0.797226 2.48359 0.787512 0.797226 0.212214 0.787512 0.138863 8.37345 8.21953 4.7731 4.68766 8.21953 8.0656 4.68766 4.60342 4.7731 4.68766 2.08744 2.05423 4.68766 4.60342 2.05423 2.0243 8.0656 7.91168 4.60342 4.51926 7.91168 7.75776 4.51926 4.43398 4.60342 4.51926 2.0243 1.99452 4.51926 4.43398 1.99452 1.96124 2.48359 0.787512 2.44433 0.765978 0.787512 0.138863 0.765978 0.162199 2.44433 0.765978 2.39897 0.747655 0.765978 0.162199 0.747655 0.149059 2.0243 1.99452 0.641365 0.636914 1.99452 1.96124 0.636914 0.632629 0.641365 0.636914 0.120823 0.14014 0.636914 0.632629 0.14014 0.141219 7.75776 7.60383 4.43398 4.3471 7.60383 7.44991 4.3471 4.25929 4.43398 4.3471 1.96124 1.92483 4.3471 4.25929 1.92483 1.88626 7.44991 7.29599 4.25929 4.17121 7.29599 7.14206 4.17121 4.08318 4.25929 4.17121 1.88626 1.84716 4.17121 4.08318 1.84716 1.80809 1.96124 1.92483 0.632629 0.623016 1.92483 1.88626 0.623016 0.61105 0.632629 0.623016 0.141219 0.14098 0.623016 0.61105 0.14098 0.138389 1.88626 1.84716 0.61105 0.598214 1.84716 1.80809 0.598214 0.585554 0.61105 0.598214 0.138389 0.135495 0.598214 0.585554 0.135495 0.131922 7.14206 6.98814 4.08318 3.99516 6.98814 6.83421 3.99516 3.90723 4.08318 3.99516 1.80809 1.76924 3.99516 3.90723 1.76924 1.72991 6.83421 6.68029 3.90723 3.81925 6.68029 6.52637 3.81925 3.73118 3.90723 3.81925 1.72991 1.69106 3.81925 3.73118 1.69106 1.65201 2.08747 0.648458 2.05425 0.643796 0.648458 0.119913 0.643796 0.120362 2.05425 0.643796 2.0243 0.641359 0.643796 0.120362 0.641359 0.12081 1.80809 1.76924 0.585554 0.572423 1.76924 1.72991 0.572423 0.56212 0.585554 0.572423 0.131922 0.131402 0.572423 0.56212 0.131402 0.115584 6.52637 6.37244 3.73118 3.64273 6.37244 6.21852 3.64273 3.55544 3.73118 3.64273 1.65201 1.61248 3.64273 3.55544 1.61248 1.57429 6.21852 6.0646 3.55544 3.4766 6.0646 5.91067 3.4766 3.41831 3.55544 3.4766 1.57429 1.54652 3.4766 3.41831 1.54652 1.54379 1.72991 1.69106 0.56212 0.549411 1.69106 1.65201 0.549411 0.536716 0.56212 0.549411 0.115584 0.113466 0.549411 0.536716 0.113466 0.111348 1.65201 1.61248 0.536716 0.523642 1.61248 1.57429 0.523642 0.511581 0.536716 0.523642 0.111348 0.108316 0.523642 0.511581 0.108316 0.105284 8.37345 4.77312 8.21953 4.68767 4.77312 2.08747 4.68767 2.05425 8.21953 4.68767 8.0656 4.60342 4.68767 2.05425 4.60342 2.0243 1.57429 1.54652 0.511581 0.505661 1.54652 1.54379 0.505661 0.516107 0.511581 0.505661 0.105284 0.107504 0.505661 0.516107 0.107504 0.109724 8.0656 4.60342 7.91168 4.51925 4.60342 2.0243 4.51925 1.99449 7.91168 4.51925 7.75776 4.43396 4.51925 1.99449 4.43396 1.9612 2.0243 0.641359 1.99449 0.63688 0.641359 0.12081 0.63688 0.140125 1.99449 0.63688 1.9612 0.632565 0.63688 0.140125 0.632565 0.141202 7.75776 4.43396 7.60383 4.34707 4.43396 1.9612 4.34707 1.92476 7.60383 4.34707 7.44991 4.25926 4.34707 1.92476 4.25926 1.88618 1.9612 0.632565 1.92476 0.622923 0.632565 0.141202 0.622923 0.140963 1.92476 0.622923 1.88618 0.610934 0.622923 0.140963 0.610934 0.138373 7.44991 4.25926 7.29599 4.17118 4.25926 1.88618 4.17118 1.84708 7.29599 4.17118 7.14206 4.08316 4.17118 1.84708 4.08316 1.80804 1.88618 0.610934 1.84708 0.5981 0.610934 0.138373 0.5981 0.135475 1.84708 0.5981 1.80804 0.585478 0.5981 0.135475 0.585478 0.131908 7.14206 4.08316 6.98814 3.99517 4.08316 1.80804 3.99517 1.76925 6.98814 3.99517 6.83421 3.90727 3.99517 1.76925 3.90727 1.73001 1.80804 0.585478 1.76925 0.572435 0.585478 0.131908 0.572435 0.131384 1.76925 0.572435 1.73001 0.562257 0.572435 0.131384 0.562257 0.115577 6.83421 3.90727 6.68029 3.81933 3.90727 1.73001 3.81933 1.69127 6.68029 3.81933 6.52637 3.7313 3.81933 1.69127 3.7313 1.65234 1.73001 0.562257 1.69127 0.549698 0.562257 0.115577 0.549698 0.113499 1.69127 0.549698 1.65234 0.537164 0.549698 0.113499 0.537164 0.11142 6.52637 3.7313 6.37244 3.6429 3.7313 1.65234 3.6429 1.61293 6.37244 3.6429 6.21852 3.55566 3.6429 1.61293 3.55566 1.57487 1.65234 0.537164 1.61293 0.524255 0.537164 0.11142 0.524255 0.108444 1.61293 0.524255 1.57487 0.512347 0.524255 0.108444 0.512347 0.105468 6.21852 3.55566 6.0646 3.47688 3.55566 1.57487 3.47688 1.54721 6.0646 3.47688 5.91067 3.41865 3.47688 1.54721 3.41865 1.54461 1.57487 0.512347 1.54721 0.506578 0.512347 0.105468 0.506578 0.107492 1.54721 0.506578 1.54461 0.517032 0.506578 0.107492 0.517032 0.109516 5.91067 5.75675 3.41831 3.3849 5.75675 5.60282 3.3849 3.36393 3.41831 3.3849 1.54379 1.57189 3.3849 3.36393 1.57189 1.61541 1.54379 1.57189 0.516107 0.545873 1.57189 1.61541 0.545873 0.587439 0.516107 0.545873 0.109724 0.124302 0.545873 0.587439 0.124302 0.13888 5.29498 5.14105 3.28887 3.22422 5.14105 4.98713 3.22422 3.31789 3.28887 3.22422 1.66771 1.67921 3.22422 3.31789 1.67921 1.64865 5.60282 5.4489 3.36393 3.33379 5.4489 5.29498 3.33379 3.28887 3.36393 3.33379 1.61541 1.65234 3.33379 3.28887 1.65234 1.66771 1.61541 1.65234 0.587439 0.623581 1.65234 1.66771 0.623581 0.654609 0.587439 0.623581 0.13888 0.172468 0.623581 0.654609 0.172468 0.18669 1.64865 1.63189 0.682173 0.682543 1.63189 1.61513 0.682543 0.668683 0.682173 0.682543 0.208411 0.218877 0.682543 0.668683 0.218877 0.20911 1.54461 0.517032 1.5728 0.546637 0.517032 0.109516 0.546637 0.122891 1.5728 0.546637 1.61637 0.587837 0.546637 0.122891 0.587837 0.136267 0.120113 0.123115 0.0589914 0.0622453 0.123115 0.126117 0.0622453 0.0654991 0.0589914 0.0622453 -0.00213049 0.00137532 0.0622453 0.0654991 0.00137532 0.00488113 1.66771 1.67921 0.654609 0.670655 1.67921 1.64865 0.670655 0.682173 0.654609 0.670655 0.18669 0.200622 0.670655 0.682173 0.200622 0.208411 0.109724 0.124302 0.0531304 0.0608007 0.124302 0.13888 0.0608007 0.068471 0.0531304 0.0608007 -0.00346305 -0.00270081 0.0608007 0.068471 -0.00270081 -0.00193856 5.91067 3.41865 5.75675 3.38533 3.41865 1.54461 3.38533 1.5728 5.75675 3.38533 5.60282 3.36449 3.38533 1.5728 3.36449 1.61637 0.126117 0.124401 0.0654991 0.0649288 0.124401 0.122685 0.0649288 0.0643585 0.0654991 0.0649288 0.00488113 0.00545654 0.0649288 0.0643585 0.00545654 0.00603194 1.39892 1.32255 0.559371 0.493748 1.32255 1.26939 0.493748 0.538283 0.559371 0.493748 0.175841 0.14018 0.493748 0.538283 0.14018 0.125923 5.60282 3.36449 5.4489 3.33446 3.36449 1.61637 3.33446 1.65318 5.4489 3.33446 5.29498 3.28919 3.33446 1.65318 3.28919 1.66756 1.61637 0.587837 1.65318 0.623419 0.587837 0.136267 0.623419 0.168353 1.65318 0.623419 1.66756 0.652507 0.623419 0.168353 0.652507 0.178921 0.122685 0.121301 0.0643585 0.0637693 0.121301 0.119916 0.0637693 0.0631802 0.0643585 0.0637693 0.00603194 0.00623795 0.0637693 0.0631802 0.00623795 0.00644396 1.66756 0.652507 1.67549 0.661407 0.652507 0.178921 0.661407 0.182961 1.67549 0.661407 1.63203 0.656215 0.661407 0.182961 0.656215 0.170191 1.63203 0.656215 1.59696 0.619081 0.656215 0.170191 0.619081 0.132786 1.59696 0.619081 1.56188 0.568201 0.619081 0.132786 0.568201 0.0652156 0.109516 0.0490301 0.122891 0.0541053 0.0490301 -0.0114557 0.0541053 -0.0146809 0.122891 0.0541053 0.136267 0.0591804 0.0541053 -0.0146809 0.0591804 -0.017906 0.120114 0.0589472 0.123116 0.0621781 0.0589472 -0.00221996 0.0621781 0.00124059 0.123116 0.0621781 0.126117 0.065409 0.0621781 0.00124059 0.065409 0.00470113 0.126117 0.065409 0.124401 0.0648157 0.065409 0.00470113 0.0648157 0.00523033 0.124401 0.0648157 0.122685 0.0642225 0.0648157 0.00523033 0.0642225 0.00575953 0.122685 0.0642225 0.121299 0.0636401 0.0642225 0.00575953 0.0636401 0.00598084 0.121299 0.0636401 0.119913 0.0630577 0.0636401 0.00598084 0.0630577 0.00620215 0.119916 0.12037 0.0631802 0.0621069 0.12037 0.120823 0.0621069 0.0610337 0.0631802 0.0621069 0.00644396 0.00384403 0.0621069 0.0610337 0.00384403 0.00124409 0.285565 0.212214 0.212214 0.140045 0.212214 0.138864 0.140045 0.0678751 0.212214 0.140045 0.138863 0.0678747 0.140045 0.0678751 0.0678747 -0.00311361 1.61513 1.50703 0.668683 0.636033 1.50703 1.39892 0.636033 0.559371 0.668683 0.636033 0.20911 0.192476 0.636033 0.559371 0.192476 0.175841 0.0652156 -0.0565177 0.0081667 -0.131295 -0.0565177 -0.178251 -0.131295 -0.270756 0.0081667 -0.131295 -0.0488822 -0.206071 -0.131295 -0.270756 -0.206071 -0.363261 -0.0488822 -0.206071 0.00974808 -0.20285 -0.206071 -0.363261 -0.20285 -0.415448 0.00974808 -0.20285 0.0683783 -0.199629 -0.20285 -0.415448 -0.199629 -0.467636 0.119913 0.0630577 0.120362 0.0620329 0.0630577 0.00620215 0.0620329 0.00370425 0.120362 0.0620329 0.12081 0.0610081 0.0620329 0.00370425 0.0610081 0.00120636 4.98713 4.83321 3.31789 3.23255 4.83321 4.67928 3.23255 3.14721 3.31789 3.23255 1.64865 1.63189 3.23255 3.14721 1.63189 1.61513 1.56188 0.568201 1.52481 0.505032 0.568201 0.0652156 0.505032 0.0081667 1.52481 0.505032 1.48773 0.719424 0.505032 0.0081667 0.719424 -0.0488822 1.66818 0.868281 1.83014 1.07457 0.868281 0.0683783 1.07457 0.319005 1.83014 1.07457 1.99209 1.28086 1.07457 0.319005 1.28086 0.569632 4.67928 4.52536 3.14721 3.01619 4.52536 4.37143 3.01619 2.88518 3.14721 3.01619 1.61513 1.50703 3.01619 2.88518 1.50703 1.39892 0.20911 0.192476 0.10509 0.104593 0