# vtk DataFile Version 3.0
#This file was generated by the deal.II library on 2015/4/22 at 22:35:33
ASCII
DATASET UNSTRUCTURED_GRID

POINTS 5140 double
0 0 0
0.125 0 0
0 0.125 0
0.125 0.125 0
0.125 0 0
0.25 0 0
0.125 0.125 0
0.25 0.125 0
0 0.125 0
0.125 0.125 0
0 0.25 0
0.125 0.25 0
0.125 0.125 0
0.25 0.125 0
0.125 0.25 0
0.25 0.25 0
0.25 0.25 0
0.375 0.25 0
0.25 0.375 0
0.375 0.375 0
0.75 0.25 0
0.8125 0.25 0
0.75 0.3125 0
0.8125 0.3125 0
0.75 0.375 0
0.8125 0.375 0
0.75 0.4375 0
0.8125 0.4375 0
0.8125 0.375 0
0.875 0.375 0
0.8125 0.4375 0
0.875 0.4375 0
0.75 0.4375 0
0.8125 0.4375 0
0.75 0.5 0
0.8125 0.5 0
0.25 0.75 0
0.3125 0.75 0
0.25 0.8125 0
0.3125 0.8125 0
0.375 0.75 0
0.4375 0.75 0
0.375 0.8125 0
0.4375 0.8125 0
0.4375 0.75 0
0.5 0.75 0
0.4375 0.8125 0
0.5 0.8125 0
0.375 0.8125 0
0.4375 0.8125 0
0.375 0.875 0
0.4375 0.875 0
0.75 0.125 0
0.8125 0.125 0
0.75 0.1875 0
0.8125 0.1875 0
0.8125 0.125 0
0.875 0.125 0
0.8125 0.1875 0
0.875 0.1875 0
0.75 0.1875 0
0.8125 0.1875 0
0.75 0.25 0
0.8125 0.25 0
0.8125 0.1875 0
0.875 0.1875 0
0.8125 0.25 0
0.875 0.25 0
0.75 0.625 0
0.8125 0.625 0
0.75 0.6875 0
0.8125 0.6875 0
0.625 0.75 0
0.6875 0.75 0
0.625 0.8125 0
0.6875 0.8125 0
0.125 0.75 0
0.1875 0.75 0
0.125 0.8125 0
0.1875 0.8125 0
0.1875 0.75 0
0.25 0.75 0
0.1875 0.8125 0
0.25 0.8125 0
0.125 0.8125 0
0.1875 0.8125 0
0.125 0.875 0
0.1875 0.875 0
0.1875 0.8125 0
0.25 0.8125 0
0.1875 0.875 0
0.25 0.875 0
0.625 0 0
0.6875 0 0
0.625 0.0625 0
0.6875 0.0625 0
0.6875 0 0
0.75 0 0
0.6875 0.0625 0
0.75 0.0625 0
0.625 0.0625 0
0.6875 0.0625 0
0.625 0.125 0
0.6875 0.125 0
0.6875 0.0625 0
0.75 0.0625 0
0.6875 0.125 0
0.75 0.125 0
0.6875 0.125 0
0.75 0.125 0
0.6875 0.1875 0
0.75 0.1875 0
0.6875 0.1875 0
0.75 0.1875 0
0.6875 0.25 0
0.75 0.25 0
0 0.625 0
0.0625 0.625 0
0 0.6875 0
0.0625 0.6875 0
0.0625 0.625 0
0.125 0.625 0
0.0625 0.6875 0
0.125 0.6875 0
0 0.6875 0
0.0625 0.6875 0
0 0.75 0
0.0625 0.75 0
0.0625 0.6875 0
0.125 0.6875 0
0.0625 0.75 0
0.125 0.75 0
0.125 0.6875 0
0.1875 0.6875 0
0.125 0.75 0
0.1875 0.75 0
0.1875 0.6875 0
0.25 0.6875 0
0.1875 0.75 0
0.25 0.75 0
0.5 0 0
0.5625 0 0
0.5 0.0625 0
0.5625 0.0625 0
0.5625 0 0
0.625 0 0
0.5625 0.0625 0
0.625 0.0625 0
0.5 0.0625 0
0.5625 0.0625 0
0.5 0.125 0
0.5625 0.125 0
0.5625 0.0625 0
0.625 0.0625 0
0.5625 0.125 0
0.625 0.125 0
0.5 0.125 0
0.5625 0.125 0
0.5 0.1875 0
0.5625 0.1875 0
0.5625 0.125 0
0.625 0.125 0
0.5625 0.1875 0
0.625 0.1875 0
0 0.5 0
0.0625 0.5 0
0 0.5625 0
0.0625 0.5625 0
0.0625 0.5 0
0.125 0.5 0
0.0625 0.5625 0
0.125 0.5625 0
0 0.5625 0
0.0625 0.5625 0
0 0.625 0
0.0625 0.625 0
0.0625 0.5625 0
0.125 0.5625 0
0.0625 0.625 0
0.125 0.625 0
0.125 0.5 0
0.1875 0.5 0
0.125 0.5625 0
0.1875 0.5625 0
0.125 0.5625 0
0.1875 0.5625 0
0.125 0.625 0
0.1875 0.625 0
0.625 0.25 0
0.6875 0.25 0
0.625 0.3125 0
0.6875 0.3125 0
0.6875 0.25 0
0.75 0.25 0
0.6875 0.3125 0
0.75 0.3125 0
0.6875 0.3125 0
0.75 0.3125 0
0.6875 0.375 0
0.75 0.375 0
0.6875 0.4375 0
0.75 0.4375 0
0.6875 0.5 0
0.75 0.5 0
0.25 0.625 0
0.3125 0.625 0
0.25 0.6875 0
0.3125 0.6875 0
0.25 0.6875 0
0.3125 0.6875 0
0.25 0.75 0
0.3125 0.75 0
0.3125 0.6875 0
0.375 0.6875 0
0.3125 0.75 0
0.375 0.75 0
0.4375 0.6875 0
0.5 0.6875 0
0.4375 0.75 0
0.5 0.75 0
0.6875 0.5 0
0.75 0.5 0
0.6875 0.5625 0
0.75 0.5625 0
0.5 0.6875 0
0.5625 0.6875 0
0.5 0.75 0
0.5625 0.75 0
0.6875 0.625 0
0.75 0.625 0
0.6875 0.6875 0
0.75 0.6875 0
0.625 0.6875 0
0.6875 0.6875 0
0.625 0.75 0
0.6875 0.75 0
0.6875 0.6875 0
0.75 0.6875 0
0.6875 0.75 0
0.75 0.75 0
0.25 0 0
0.3125 0 0
0.25 0.0625 0
0.3125 0.0625 0
0.25 0.0625 0
0.3125 0.0625 0
0.25 0.125 0
0.3125 0.125 0
0 0.25 0
0.0625 0.25 0
0 0.3125 0
0.0625 0.3125 0
0.0625 0.25 0
0.125 0.25 0
0.0625 0.3125 0
0.125 0.3125 0
0.5 0.25 0
0.5625 0.25 0
0.5 0.3125 0
0.5625 0.3125 0
0.5625 0.25 0
0.625 0.25 0
0.5625 0.3125 0
0.625 0.3125 0
0.5 0.3125 0
0.5625 0.3125 0
0.5 0.375 0
0.5625 0.375 0
0.5625 0.3125 0
0.625 0.3125 0
0.5625 0.375 0
0.625 0.375 0
0.5 0.375 0
0.5625 0.375 0
0.5 0.4375 0
0.5625 0.4375 0
0.5625 0.375 0
0.625 0.375 0
0.5625 0.4375 0
0.625 0.4375 0
0.5 0.4375 0
0.5625 0.4375 0
0.5 0.5 0
0.5625 0.5 0
0.5625 0.4375 0
0.625 0.4375 0
0.5625 0.5 0
0.625 0.5 0
0.25 0.5 0
0.3125 0.5 0
0.25 0.5625 0
0.3125 0.5625 0
0.3125 0.5 0
0.375 0.5 0
0.3125 0.5625 0
0.375 0.5625 0
0.25 0.5625 0
0.3125 0.5625 0
0.25 0.625 0
0.3125 0.625 0
0.3125 0.5625 0
0.375 0.5625 0
0.3125 0.625 0
0.375 0.625 0
0.375 0.5 0
0.4375 0.5 0
0.375 0.5625 0
0.4375 0.5625 0
0.4375 0.5 0
0.5 0.5 0
0.4375 0.5625 0
0.5 0.5625 0
0.375 0.5625 0
0.4375 0.5625 0
0.375 0.625 0
0.4375 0.625 0
0.4375 0.5625 0
0.5 0.5625 0
0.4375 0.625 0
0.5 0.625 0
0.5 0.5 0
0.5625 0.5 0
0.5 0.5625 0
0.5625 0.5625 0
0.5625 0.5 0
0.625 0.5 0
0.5625 0.5625 0
0.625 0.5625 0
0.5 0.5625 0
0.5625 0.5625 0
0.5 0.625 0
0.5625 0.625 0
0.25 0.125 0
0.3125 0.125 0
0.25 0.1875 0
0.3125 0.1875 0
0.3125 0.125 0
0.375 0.125 0
0.3125 0.1875 0
0.375 0.1875 0
0.25 0.1875 0
0.3125 0.1875 0
0.25 0.25 0
0.3125 0.25 0
0.3125 0.1875 0
0.375 0.1875 0
0.3125 0.25 0
0.375 0.25 0
0.375 0.25 0
0.4375 0.25 0
0.375 0.3125 0
0.4375 0.3125 0
0.4375 0.25 0
0.5 0.25 0
0.4375 0.3125 0
0.5 0.3125 0
0.375 0.3125 0
0.4375 0.3125 0
0.375 0.375 0
0.4375 0.375 0
0.4375 0.3125 0
0.5 0.3125 0
0.4375 0.375 0
0.5 0.375 0
0.25 0.375 0
0.3125 0.375 0
0.25 0.4375 0
0.3125 0.4375 0
0.3125 0.375 0
0.375 0.375 0
0.3125 0.4375 0
0.375 0.4375 0
0.25 0.4375 0
0.3125 0.4375 0
0.25 0.5 0
0.3125 0.5 0
0.3125 0.4375 0
0.375 0.4375 0
0.3125 0.5 0
0.375 0.5 0
0.375 0.125 0
0.4375 0.125 0
0.375 0.1875 0
0.4375 0.1875 0
0.4375 0.125 0
0.5 0.125 0
0.4375 0.1875 0
0.5 0.1875 0
0.375 0.1875 0
0.4375 0.1875 0
0.375 0.25 0
0.4375 0.25 0
0.4375 0.1875 0
0.5 0.1875 0
0.4375 0.25 0
0.5 0.25 0
0.125 0.25 0
0.1875 0.25 0
0.125 0.3125 0
0.1875 0.3125 0
0.1875 0.25 0
0.25 0.25 0
0.1875 0.3125 0
0.25 0.3125 0
0.125 0.3125 0
0.1875 0.3125 0
0.125 0.375 0
0.1875 0.375 0
0.1875 0.3125 0
0.25 0.3125 0
0.1875 0.375 0
0.25 0.375 0
0.125 0.375 0
0.1875 0.375 0
0.125 0.4375 0
0.1875 0.4375 0
0.1875 0.375 0
0.25 0.375 0
0.1875 0.4375 0
0.25 0.4375 0
0.125 0.4375 0
0.1875 0.4375 0
0.125 0.5 0
0.1875 0.5 0
0.1875 0.4375 0
0.25 0.4375 0
0.1875 0.5 0
0.25 0.5 0
0.875 0.3125 0
0.90625 0.3125 0
0.875 0.34375 0
0.90625 0.34375 0
0.90625 0.3125 0
0.9375 0.3125 0
0.90625 0.34375 0
0.9375 0.34375 0
0.875 0.34375 0
0.90625 0.34375 0
0.875 0.375 0
0.90625 0.375 0
0.90625 0.34375 0
0.9375 0.34375 0
0.90625 0.375 0
0.9375 0.375 0
0.8125 0.25 0
0.84375 0.25 0
0.8125 0.28125 0
0.84375 0.28125 0
0.84375 0.25 0
0.875 0.25 0
0.84375 0.28125 0
0.875 0.28125 0
0.8125 0.28125 0
0.84375 0.28125 0
0.8125 0.3125 0
0.84375 0.3125 0
0.84375 0.28125 0
0.875 0.28125 0
0.84375 0.3125 0
0.875 0.3125 0
0.875 0.4375 0
0.90625 0.4375 0
0.875 0.46875 0
0.90625 0.46875 0
0.90625 0.4375 0
0.9375 0.4375 0
0.90625 0.46875 0
0.9375 0.46875 0
0.875 0.46875 0
0.90625 0.46875 0
0.875 0.5 0
0.90625 0.5 0
0.90625 0.46875 0
0.9375 0.46875 0
0.90625 0.5 0
0.9375 0.5 0
0.3125 0.875 0
0.34375 0.875 0
0.3125 0.90625 0
0.34375 0.90625 0
0.34375 0.875 0
0.375 0.875 0
0.34375 0.90625 0
0.375 0.90625 0
0.3125 0.90625 0
0.34375 0.90625 0
0.3125 0.9375 0
0.34375 0.9375 0
0.34375 0.90625 0
0.375 0.90625 0
0.34375 0.9375 0
0.375 0.9375 0
0.75 0.3125 0
0.78125 0.3125 0
0.75 0.34375 0
0.78125 0.34375 0
0.78125 0.3125 0
0.8125 0.3125 0
0.78125 0.34375 0
0.8125 0.34375 0
0.75 0.34375 0
0.78125 0.34375 0
0.75 0.375 0
0.78125 0.375 0
0.78125 0.34375 0
0.8125 0.34375 0
0.78125 0.375 0
0.8125 0.375 0
0.4375 0.875 0
0.46875 0.875 0
0.4375 0.90625 0
0.46875 0.90625 0
0.46875 0.875 0
0.5 0.875 0
0.46875 0.90625 0
0.5 0.90625 0
0.4375 0.90625 0
0.46875 0.90625 0
0.4375 0.9375 0
0.46875 0.9375 0
0.46875 0.90625 0
0.5 0.90625 0
0.46875 0.9375 0
0.5 0.9375 0
0.875 0.5 0
0.90625 0.5 0
0.875 0.53125 0
0.90625 0.53125 0
0.90625 0.5 0
0.9375 0.5 0
0.90625 0.53125 0
0.9375 0.53125 0
0.90625 0.53125 0
0.9375 0.53125 0
0.90625 0.5625 0
0.9375 0.5625 0
0.8125 0.03125 0
0.84375 0.03125 0
0.8125 0.0625 0
0.84375 0.0625 0
0.90625 0.625 0
0.9375 0.625 0
0.90625 0.65625 0
0.9375 0.65625 0
0.875 0.65625 0
0.90625 0.65625 0
0.875 0.6875 0
0.90625 0.6875 0
0.75 0.0625 0
0.78125 0.0625 0
0.75 0.09375 0
0.78125 0.09375 0
0.78125 0.0625 0
0.8125 0.0625 0
0.78125 0.09375 0
0.8125 0.09375 0
0.75 0.09375 0
0.78125 0.09375 0
0.75 0.125 0
0.78125 0.125 0
0.78125 0.09375 0
0.8125 0.09375 0
0.78125 0.125 0
0.8125 0.125 0
0.5 0.875 0
0.53125 0.875 0
0.5 0.90625 0
0.53125 0.90625 0
0.5 0.90625 0
0.53125 0.90625 0
0.5 0.9375 0
0.53125 0.9375 0
0.53125 0.90625 0
0.5625 0.90625 0
0.53125 0.9375 0
0.5625 0.9375 0
0.59375 0.90625 0
0.625 0.90625 0
0.59375 0.9375 0
0.625 0.9375 0
0.5625 0.9375 0
0.59375 0.9375 0
0.5625 0.96875 0
0.59375 0.96875 0
0.8125 0.0625 0
0.84375 0.0625 0
0.8125 0.09375 0
0.84375 0.09375 0
0.84375 0.0625 0
0.875 0.0625 0
0.84375 0.09375 0
0.875 0.09375 0
0.8125 0.09375 0
0.84375 0.09375 0
0.8125 0.125 0
0.84375 0.125 0
0.84375 0.09375 0
0.875 0.09375 0
0.84375 0.125 0
0.875 0.125 0
0.875 0.25 0
0.90625 0.25 0
0.875 0.28125 0
0.90625 0.28125 0
0.90625 0.25 0
0.9375 0.25 0
0.90625 0.28125 0
0.9375 0.28125 0
0.875 0.28125 0
0.90625 0.28125 0
0.875 0.3125 0
0.90625 0.3125 0
0.90625 0.28125 0
0.9375 0.28125 0
0.90625 0.3125 0
0.9375 0.3125 0
0.875 0.0625 0
0.90625 0.0625 0
0.875 0.09375 0
0.90625 0.09375 0
0.90625 0.0625 0
0.9375 0.0625 0
0.90625 0.09375 0
0.9375 0.09375 0
0.875 0.09375 0
0.90625 0.09375 0
0.875 0.125 0
0.90625 0.125 0
0.90625 0.09375 0
0.9375 0.09375 0
0.90625 0.125 0
0.9375 0.125 0
0.25 0.875 0
0.28125 0.875 0
0.25 0.90625 0
0.28125 0.90625 0
0.28125 0.875 0
0.3125 0.875 0
0.28125 0.90625 0
0.3125 0.90625 0
0.25 0.90625 0
0.28125 0.90625 0
0.25 0.9375 0
0.28125 0.9375 0
0.28125 0.90625 0
0.3125 0.90625 0
0.28125 0.9375 0
0.3125 0.9375 0
0.875 0.125 0
0.90625 0.125 0
0.875 0.15625 0
0.90625 0.15625 0
0.90625 0.125 0
0.9375 0.125 0
0.90625 0.15625 0
0.9375 0.15625 0
0.875 0.15625 0
0.90625 0.15625 0
0.875 0.1875 0
0.90625 0.1875 0
0.90625 0.15625 0
0.9375 0.15625 0
0.90625 0.1875 0
0.9375 0.1875 0
[...]
POINT_DATA 5140
SCALARS V double 1
LOOKUP_TABLE default
0 0 0 0.00258089 0 0 0.00258089 0.00683643 0 0.00258089 0 0.0068376 0.00258089 0.00683643 0.0068376 0.0132414 0.0132414 0.0249334 0.0249386 0.0334851 0.181073 0.23203 0.186622 0.242037 0.195247 0.255855 0.209952 0.273354 0.255855 0.325105 0.273354 0.346199 0.209952 0.273354 0.229784 0.294319 0.181154 0.186662 0.232191 0.242058 0.195291 0.209985 0.2559 0.273387 0.209985 0.229812 0.273387 0.294348 0.2559 0.273387 0.325139 0.346224 0.174647 0.215816 0.176035 0.222778 0.215816 0.260642 0.222778 0.274779 0.176035 0.222778 0.181073 0.23203 0.222778 0.274779 0.23203 0.290116 0.286859 0.35385 0.330037 0.394546 0.286896 0.33003 0.353861 0.394972 0.174469 0.176015 0.215764 0.222808 0.176015 0.181154 0.222808 0.232191 0.215764 0.222808 0.260604 0.275022 0.222808 0.232191 0.275022 0.290092 0.111158 0.142035 0.107302 0.139581 0.142035 0.172913 0.139581 0.174647 0.107302 0.139581 0.103446 0.136482 0.139581 0.174647 0.136482 0.174647 0.136482 0.174647 0.135206 0.176035 0.135206 0.176035 0.136349 0.181073 0.111158 0.107324 0.142035 0.139626 0.107324 0.103489 0.139626 0.136614 0.142035 0.139626 0.172913 0.174771 0.139626 0.136614 0.174771 0.174469 0.136614 0.135298 0.174469 0.176015 0.135298 0.136393 0.176015 0.181154 0.0494036 0.0802808 0.0502656 0.0787838 0.0802808 0.111158 0.0787838 0.107302 0.0502656 0.0787838 0.0511276 0.0772868 0.0787838 0.107302 0.0772868 0.103446 0.0511276 0.0772868 0.0509263 0.0733307 0.0772868 0.103446 0.0733307 0.101098 0.0494036 0.0502766 0.0802808 0.0788002 0.0502766 0.0511497 0.0788002 0.0773195 0.0802808 0.0788002 0.111158 0.107324 0.0788002 0.0773195 0.107324 0.103489 0.0511497 0.050948 0.0773195 0.0733689 0.0773195 0.0733689 0.103489 0.101147 0.100273 0.136349 0.101815 0.139489 0.136349 0.181073 0.139489 0.186622 0.139489 0.186622 0.145327 0.195247 0.156735 0.209952 0.174644 0.229784 0.100322 0.101854 0.136393 0.139535 0.136393 0.139535 0.181154 0.186662 0.139535 0.145364 0.186662 0.195291 0.156762 0.174665 0.209985 0.229812 0.174644 0.229784 0.198652 0.254195 0.174665 0.19867 0.229812 0.254226 0.231604 0.286859 0.277213 0.330037 0.231617 0.277213 0.286896 0.33003 0.277213 0.330037 0.33003 0.380775 0 0 0.00341821 0.00629201 0.00341821 0.00629201 0.00683643 0.0121749 0 0.0034188 0 0.00629335 0.0034188 0.0068376 0.00629335 0.0121775 0.0502797 0.0723274 0.0521116 0.0741295 0.0723274 0.100273 0.0741295 0.101815 0.0521116 0.0741295 0.0563967 0.0783839 0.0741295 0.101815 0.0783839 0.106558 0.0563967 0.0783839 0.0643173 0.0874212 0.0783839 0.106558 0.0874212 0.116295 0.0643173 0.0874212 0.079092 0.102397 0.0874212 0.116295 0.102397 0.132087 0.0503005 0.0521275 0.0723616 0.0741562 0.0521275 0.0564071 0.0741562 0.0784025 0.0723616 0.0741562 0.100322 0.101854 0.0741562 0.0784025 0.101854 0.106586 0.0564071 0.0643224 0.0784025 0.0874327 0.0643224 0.079092 0.0874327 0.102403 0.0784025 0.0874327 0.106586 0.116314 0.0874327 0.102403 0.116314 0.1321 0.079092 0.102397 0.102403 0.124034 0.102397 0.132087 0.124034 0.155037 0.102403 0.124034 0.1321 0.155045 0.00683643 0.0121749 0.0100389 0.0151116 0.0121749 0.0195729 0.0151116 0.0219053 0.0100389 0.0151116 0.0132414 0.017495 0.0151116 0.0219053 0.017495 0.0249334 0.0249334 0.0356999 0.0273751 0.0367096 0.0356999 0.0502797 0.0367096 0.0521116 0.0273751 0.0367096 0.0334851 0.0415957 0.0367096 0.0521116 0.0415957 0.0563967 0.0249386 0.0273786 0.035711 0.0367175 0.0273786 0.0334851 0.0367175 0.0416002 0.035711 0.0367175 0.0503005 0.0521275 0.0367175 0.0416002 0.0521275 0.0564071 0.0195729 0.0334964 0.0219053 0.034306 0.0334964 0.0511276 0.034306 0.0509263 0.0219053 0.034306 0.0249334 0.0356999 0.034306 0.0509263 0.0356999 0.0502797 0.0068376 0.0100395 0.0121775 0.0151144 0.0100395 0.0132414 0.0151144 0.0174966 0.0121775 0.0151144 0.0195778 0.0219109 0.0151144 0.0174966 0.0219109 0.0249386 0.0195778 0.0219109 0.0335063 0.0343175 0.0219109 0.0249386 0.0343175 0.035711 0.0335063 0.0343175 0.0511497 0.050948 0.0343175 0.035711 0.050948 0.0503005 0.306423 0.341983 0.315764 0.353168 0.341983 0.377885 0.353168 0.388201 0.315764 0.353168 0.325105 0.36357 0.353168 0.388201 0.36357 0.402035 0.23203 0.261073 0.237034 0.267651 0.261073 0.290116 0.267651 0.298269 0.237034 0.267651 0.242037 0.27423 0.267651 0.298269 0.27423 0.306423 0.346199 0.386957 0.358369 0.400169 0.386957 0.427714 0.400169 0.441111 0.358369 0.400169 0.370917 0.413518 0.400169 0.441111 0.413518 0.454846 0.306465 0.315802 0.342016 0.3532 0.315802 0.325139 0.3532 0.363597 0.342016 0.3532 0.377912 0.388224 0.3532 0.363597 0.388224 0.402055 0.186622 0.21433 0.190935 0.21994 0.21433 0.242037 0.21994 0.248946 0.190935 0.21994 0.195247 0.225551 0.21994 0.248946 0.225551 0.255855 0.346224 0.358389 0.386975 0.400183 0.358389 0.370935 0.400183 0.413528 0.386975 0.400183 0.427726 0.44112 0.400183 0.413528 0.44112 0.454851 0.370917 0.413518 0.384508 0.427253 0.413518 0.454846 0.427253 0.469134 0.427253 0.469134 0.44065 0.485049 0.203269 0.226677 0.212295 0.226598 0.472789 0.516093 0.491614 0.533786 0.450635 0.491614 0.469528 0.511783 0.174647 0.192445 0.172052 0.191913 0.192445 0.212295 0.191913 0.21148 0.172052 0.191913 0.174647 0.194468 0.191913 0.21148 0.194468 0.215816 0.370935 0.384512 0.413528 0.427247 0.413528 0.427247 0.454851 0.469137 0.427247 0.440592 0.469137 0.484952 0.456087 0.474264 0.50016 0.517328 0.484952 0.50016 0.528215 0.543446 0.212295 0.226598 0.21148 0.233223 0.226598 0.248433 0.233223 0.255058 0.21148 0.233223 0.215816 0.238229 0.233223 0.255058 0.238229 0.260642 0.290116 0.321552 0.298269 0.331878 0.321552 0.354913 0.331878 0.367167 0.298269 0.331878 0.306423 0.341983 0.331878 0.367167 0.341983 0.377885 0.248433 0.267342 0.255058 0.275609 0.267342 0.288422 0.275609 0.298895 0.255058 0.275609 0.260642 0.284748 0.275609 0.298895 0.284748 0.309998 0.290092 0.298279 0.321621 0.331913 0.298279 0.306465 0.331913 0.342016 0.321621 0.331913 0.354956 0.3672 0.331913 0.342016 0.3672 0.377912 0.260642 0.284748 0.26771 0.293393 0.284748 0.309998 0.293393 0.320936 0.26771 0.293393 0.274779 0.302716 0.293393 0.320936 0.302716 0.332102 0.274779 0.302716 0.282447 0.312025 0.302716 0.332102 0.312025 0.343489 0.282447 0.312025 0.290116 0.321552 0.312025 0.343489 0.321552 0.354913 0.212644 0.211498 0.226699 0.233459 0.211498 0.215764 0.233459 0.238184 0.226699 0.233459 0.248486 0.255071 0.233459 0.238184 0.255071 0.260604 0.248486 0.255071 0.267389 0.275692 0.255071 0.260604 0.275692 0.284873 0.267389 0.275692 0.288457 0.29895 0.275692 0.284873 0.29895 0.310061 0.260604 0.267813 0.284873 0.293507 0.267813 0.275022 0.293507 0.302816 0.284873 0.293507 0.310061 0.321004 0.293507 0.302816 0.321004 0.332165 0.275022 0.282765 0.302816 0.312106 0.282765 0.290092 0.312106 0.321621 0.302816 0.312106 0.332165 0.343542 0.312106 0.321621 0.343542 0.354956 0.172913 0.188351 0.172189 0.189064 0.188351 0.20379 0.189064 0.203269 0.172189 0.189064 0.174647 0.192445 0.35385 0.396255 0.373489 0.409944 0.373489 0.409944 0.394546 0.432228 0.409944 0.450635 0.432228 0.469528 0.394546 0.432228 0.418738 0.453635 0.418738 0.453635 0.44293 0.476147 0.453635 0.489924 0.476147 0.514075 0.353861 0.373625 0.395649 0.410098 0.373625 0.394972 0.410098 0.431297 0.172913 0.172031 0.188351 0.188987 0.172031 0.174771 0.188987 0.193007 0.188351 0.188987 0.20379 0.203237 0.174771 0.172532 0.193007 0.191148 0.172532 0.174469 0.191148 0.195116 0.191148 0.195116 0.211498 0.215764 0.476147 0.514075 0.500201 0.537335 0.476014 0.500357 0.513896 0.537454 0.242037 0.27423 0.248946 0.282355 0.27423 0.306423 0.282355 0.315764 0.248946 0.282355 0.255855 0.29048 0.282355 0.315764 0.29048 0.325105 0.325105 0.36357 0.335652 0.375263 0.36357 0.402035 0.375263 0.414875 0.335652 0.375263 0.346199 0.386957 0.375263 0.414875 0.386957 0.427714 0.186662 0.190977 0.21436 0.219978 0.190977 0.195291 0.219978 0.225595 0.21436 0.219978 0.242058 0.248979 0.219978 0.225595 0.248979 0.2559 0.232191 0.237125 0.261142 0.267702 0.237125 0.242058 0.267702 0.274262 0.261142 0.267702 0.290092 0.298279 0.267702 0.274262 0.298279 0.306465 0.242058 0.248979 0.274262 0.282391 0.248979 0.2559 0.282391 0.290519 0.274262 0.282391 0.306465 0.315802 0.282391 0.290519 0.315802 0.325139 0.325139 0.335681 0.363597 0.375286 0.335681 0.346224 0.375286 0.386975 0.363597 0.375286 0.402055 0.414891 0.375286 0.386975 0.414891 0.427726 0.330037 0.362292 0.355406 0.387072 0.362292 0.394546 0.387072 0.418738 0.355406 0.387072 0.380775 0.411852 0.387072 0.418738 0.411852 0.44293 0.33003 0.355402 0.362501 0.387214 0.355402 0.380775 0.387214 0.411928 0.362501 0.387214 0.394972 0.419026 0.387214 0.411928 0.419026 0.443081 0.103446 0.119964 0.102272 0.119058 0.119964 0.136482 0.119058 0.135844 0.102272 0.119058 0.101098 0.118152 0.119058 0.135844 0.118152 0.135206 0.101098 0.118152 0.100686 0.118231 0.118152 0.135206 0.118231 0.135777 0.100686 0.118231 0.100273 0.118311 0.118231 0.135777 0.118311 0.136349 0.103489 0.102318 0.120052 0.119137 0.102318 0.101147 0.119137 0.118223 0.120052 0.119137 0.136614 0.135956 0.119137 0.118223 0.135956 0.135298 0.101147 0.100734 0.118223 0.11829 0.100734 0.100322 0.11829 0.118357 0.118223 0.11829 0.135298 0.135846 0.11829 0.118357 0.135846 0.136393 0.0509263 0.0621285 0.050603 0.061716 0.0621285 0.0733307 0.061716 0.0728291 0.050603 0.061716 0.0502797 0.0613035 0.061716 0.0728291 0.0613035 0.0723274 0.0733307 0.0872146 0.0728291 0.0867573 0.0872146 0.101098 0.0867573 0.100686 0.0728291 0.0867573 0.0723274 0.0863 0.0867573 0.100686 0.0863 0.100273 0.050948 0.0506242 0.0621584 0.0617447 0.0506242 0.0503005 0.0617447 0.061331 0.0621584 0.0617447 0.0733689 0.0728652 0.0617447 0.061331 0.0728652 0.0723616 0.273354 0.310353 0.28304 0.322362 0.310353 0.346199 0.322362 0.358369 0.28304 0.322362 0.294319 0.334348 0.322362 0.358369 0.334348 0.370917 0.0733689 0.0728652 0.0872579 0.0867998 0.0728652 0.0723616 0.0867998 0.0863417 0.0872579 0.0867998 0.101147 0.100734 0.0867998 0.0863417 0.100734 0.100322 0.101815 0.120652 0.104186 0.123297 0.120652 0.139489 0.123297 0.142408 0.104186 0.123297 0.106558 0.125942 0.123297 0.142408 0.125942 0.145327 0.106558 0.125942 0.111427 0.131229 0.125942 0.145327 0.131229 0.151031 0.111427 0.131229 0.116295 0.136515 0.131229 0.151031 0.136515 0.156735 0.145327 0.170287 0.151031 0.176815 0.170287 0.195247 0.176815 0.202599 0.151031 0.176815 0.156735 0.183344 0.176815 0.202599 0.183344 0.209952 0.116295 0.136515 0.124191 0.14494 0.136515 0.156735 0.14494 0.16569 0.124191 0.14494 0.132087 0.153366 0.14494 0.16569 0.153366 0.174644 0.101854 0.10422 0.120694 0.123335 0.10422 0.106586 0.123335 0.125975 0.120694 0.123335 0.139535 0.14245 0.123335 0.125975 0.14245 0.145364 0.106586 0.11145 0.125975 0.131257 0.11145 0.116314 0.131257 0.136538 0.125975 0.131257 0.145364 0.151063 0.131257 0.136538 0.151063 0.156762 0.273387 0.283069 0.310383 0.322387 0.283069 0.294348 0.322387 0.334373 0.310383 0.322387 0.346224 0.358389 0.322387 0.334373 0.358389 0.370935 0.116314 0.124207 0.136538 0.14496 0.124207 0.1321 0.14496 0.153382 0.136538 0.14496 0.156762 0.165713 0.14496 0.153382 0.165713 0.174665 0.145364 0.151063 0.170328 0.17685 0.151063 0.156762 0.17685 0.183373 0.170328 0.17685 0.195291 0.202638 0.17685 0.183373 0.202638 0.209985 0.132087 0.153366 0.143562 0.165105 0.153366 0.174644 0.165105 0.186648 0.143562 0.165105 0.155037 0.176845 0.165105 0.186648 0.176845 0.198652 0.155037 0.176845 0.171209 0.193169 0.176845 0.198652 0.193169 0.215128 0.171209 0.193169 0.187381 0.209493 0.193169 0.215128 0.209493 0.231604 0.229784 0.26099 0.241057 0.2733 0.26099 0.294319 0.2733 0.306964 0.241057 0.2733 0.254195 0.287132 0.2733 0.306964 0.287132 0.321098 0.294319 0.334348 0.306964 0.347586 0.334348 0.370917 0.347586 0.384508 0.347586 0.384508 0.362126 0.398175 0.254195 0.287132 0.270527 0.302824 0.287132 0.321098 0.302824 0.336803 0.270527 0.302824 0.286859 0.320375 0.302824 0.336803 0.320375 0.35385 0.362126 0.398175 0.377801 0.413845 0.198652 0.226424 0.215128 0.242828 0.226424 0.254195 0.242828 0.270527 0.215128 0.242828 0.231604 0.259232 0.242828 0.270527 0.259232 0.286859 0.1321 0.143572 0.153382 0.16512 0.143572 0.155045 0.16512 0.176858 0.153382 0.16512 0.174665 0.186667 0.16512 0.176858 0.186667 0.19867 0.229812 0.241086 0.26102 0.273331 0.241086 0.254226 0.273331 0.287167 0.26102 0.273331 0.294348 0.306994 0.273331 0.287167 0.306994 0.321133 0.254226 0.270561 0.287167 0.302859 0.270561 0.286896 0.302859 0.320421 0.287167 0.302859 0.321133 0.336829 0.302859 0.320421 0.336829 0.353861 0.294348 0.306994 0.334373 0.347608 0.334373 0.347608 0.370935 0.384512 0.347608 0.362149 0.384512 0.398152 0.362149 0.377814 0.398152 0.413659 0.155045 0.171213 0.176858 0.193178 0.171213 0.187381 0.193178 0.209499 0.176858 0.193178 0.19867 0.215144 0.193178 0.209499 0.215144 0.231617 0.19867 0.215144 0.226448 0.242852 0.215144 0.231617 0.242852 0.259257 0.226448 0.242852 0.254226 0.270561 0.242852 0.259257 0.270561 0.286896 0 0 0.003146 0.00501689 0 0 0.00501689 0.00688778 0.003146 0.00501689 0.00629201 0.0100338 0.00501689 0.00688778 0.0100338 0.0137756 0.00629201 0.0100338 0.00923348 0.0129538 0.0100338 0.0137756 0.0129538 0.0166742 0.00923348 0.0129538 0.0121749 0.0158739 0.0129538 0.0166742 0.0158739 0.0195729 0.0185263 0.033965 0.0233212 0.0365779 0.033965 0.0494036 0.0365779 0.0498346 0.0233212 0.0365779 0.0281161 0.0391908 0.0365779 0.0498346 0.0391908 0.0502656 0.0137756 0.0209458 0.0166742 0.0237402 0.0209458 0.0281161 0.0237402 0.0308062 0.0166742 0.0237402 0.0195729 0.0265347 0.0237402 0.0308062 0.0265347 0.0334964 0.380775 0.411852 0.411928 0.441746 0.411852 0.44293 0.441746 0.471176 0.411928 0.441746 0.443081 0.471253 0.441746 0.471176 0.471253 0.498341 0.0281161 0.0391908 0.0308062 0.0407514 0.0391908 0.0502656 0.0407514 0.0506966 0.0308062 0.0407514 0.0334964 0.042312 0.0407514 0.0506966 0.042312 0.0511276 0 0.00314668 0 0.00501793 0.00314668 0.00629335 0.00501793 0.0100359 0 0.00501793 0 0.00688919 0.00501793 0.0100359 0.00688919 0.0137784 0.00629335 0.00923545 0.0100359 0.0129568 0.00923545 0.0121775 0.0129568 0.0158777 0.0100359 0.0129568 0.0137784 0.0166781 0.0129568 0.0158777 0.0166781 0.0195778 0.0137784 0.0166781 0.02095 0.023746 0.0166781 0.0195778 0.023746 0.0265421 0.02095 0.023746 0.0281215 0.0308139 0.023746 0.0265421 0.0308139 0.0335063 0.0185263 0.0233239 0.033965 0.036582 0.0233239 0.0281215 0.036582 0.0391991 0.033965 0.036582 0.0494036 0.0498401 0.036582 0.0391991 0.0498401 0.0502766 0.0281215 0.0308139 0.0391991 0.0407635 0.0308139 0.0335063 0.0407635 0.042328 0.0391991 0.0407635 0.0502766 0.0507132 0.0407635 0.042328 0.0507132 0.0511497 0.124034 0.139535 0.139539 0.155374 0.139535 0.155037 0.155374 0.171209 0.139539 0.155374 0.155045 0.171213 0.155374 0.171209 0.171213 0.187381 0.0334851 0.0375404 0.0375426 0.0416439 0.0375404 0.0415957 0.0416439 0.0457452 0.0375426 0.0416439 0.0416002 0.0457474 0.0416439 0.0457452 0.0457474 0.0498947 0.0415957 0.0489962 0.0457452 0.0530511 0.0489962 0.0563967 0.0530511 0.060357 0.0457452 0.0530511 0.0498947 0.057106 0.0530511 0.060357 0.057106 0.0643173 0.0416002 0.0457474 0.0490036 0.0530561 0.0457474 0.0498947 0.0530561 0.0571086 0.0490036 0.0530561 0.0564071 0.0603648 0.0530561 0.0571086 0.0603648 0.0643224 0.0498947 0.057106 0.0571086 0.0644066 0.057106 0.0643173 0.0644066 0.0717046 0.0571086 0.0644066 0.0643224 0.0717072 0.0644066 0.0717046 0.0717072 0.079092 0.187381 0.209493 0.209499 0.228636 0.209493 0.231604 0.228636 0.253516 0.209499 0.228636 0.231617 0.253524 0.228636 0.253516 0.253524 0.277213 0.00688778 0.0160559 0.0137756 0.0209458 0.0160559 0.0233212 0.0209458 0.0281161 0.00688919 0.0137784 0.016058 0.02095 0.016058 0.02095 0.0233239 0.0281215 0.402035 0.421145 0.408455 0.427946 0.421145 0.440256 0.427946 0.447437 0.408455 0.427946 0.414875 0.434746 0.427946 0.447437 0.434746 0.454618 0.377885 0.389819 0.383043 0.400916 0.389819 0.421074 0.400916 0.427142 0.383043 0.400916 0.388201 0.406948 0.400916 0.427142 0.406948 0.434227 0.388201 0.406948 0.395118 0.414048 0.406948 0.434227 0.414048 0.433785 0.395118 0.414048 0.402035 0.421145 0.414048 0.433785 0.421145 0.440256 0.434227 0.44105 0.433785 0.460051 0.44105 0.466246 0.460051 0.473966 0.433785 0.460051 0.440256 0.466459 0.460051 0.473966 0.466459 0.481685 0.421074 0.428414 0.427142 0.435529 0.428414 0.450808 0.435529 0.458527 0.427142 0.435529 0.434227 0.44105 0.435529 0.458527 0.44105 0.466246 0.440256 0.466459 0.447437 0.473836 0.466459 0.481685 0.473836 0.489404 0.447437 0.473836 0.454618 0.481306 0.473836 0.489404 0.481306 0.497124 0.414875 0.434746 0.421294 0.441472 0.434746 0.454618 0.441472 0.461649 0.421294 0.441472 0.427714 0.448197 0.441472 0.461649 0.448197 0.46868 0.454618 0.481306 0.461649 0.488788 0.481306 0.497124 0.488788 0.504843 0.461649 0.488788 0.46868 0.496284 0.488788 0.504843 0.496284 0.512562 0.516093 0.538136 0.524939 0.546218 0.538136 0.55897 0.546218 0.566997 0.524939 0.546218 0.533786 0.554931 0.546218 0.566997 0.554931 0.575086 0.46868 0.496284 0.47581 0.503797 0.496284 0.512562 0.503797 0.520281 0.47581 0.503797 0.482939 0.511329 0.503797 0.520281 0.511329 0.528001 0.533786 0.554931 0.543481 0.563164 0.554931 0.575086 0.563164 0.583114 0.543481 0.563164 0.552496 0.572298 0.563164 0.583114 0.572298 0.591256 0.482939 0.511329 0.490102 0.518898 0.511329 0.528001 0.518898 0.53572 0.490102 0.518898 0.497546 0.52651 0.518898 0.53572 0.52651 0.543439 0.427714 0.448197 0.434413 0.455111 0.448197 0.46868 0.455111 0.47581 0.434413 0.455111 0.441111 0.462025 0.455111 0.47581 0.462025 0.482939 0.377912 0.383068 0.38984 0.400935 0.383068 0.388224 0.400935 0.406965 0.38984 0.400935 0.421088 0.427155 0.400935 0.406965 0.427155 0.43424 0.388224 0.395139 0.406965 0.414065 0.395139 0.402055 0.414065 0.42116 0.406965 0.414065 0.43424 0.433796 0.414065 0.42116 0.433796 0.440266 0.43424 0.433796 0.441056 0.460056 0.433796 0.440266 0.460056 0.466464 0.441056 0.460056 0.466246 0.473966 0.460056 0.466464 0.473966 0.481685 0.441111 0.462025 0.447979 0.469633 0.462025 0.482939 0.469633 0.490102 0.447979 0.469633 0.454846 0.476857 0.469633 0.490102 0.476857 0.497546 0.421088 0.427155 0.428421 0.435536 0.427155 0.43424 0.435536 0.441056 0.428421 0.435536 0.450808 0.458527 0.435536 0.441056 0.458527 0.466246 0.440266 0.447446 0.466464 0.473841 0.447446 0.454626 0.473841 0.48131 0.466464 0.473841 0.481685 0.489404 0.473841 0.48131 0.489404 0.497124 0.454626 0.461656 0.48131 0.488792 0.461656 0.468686 0.488792 0.496287 0.48131 0.488792 0.497124 0.504843 0.488792 0.496287 0.504843 0.512562 0.50016 0.508744 0.521812 0.529944 0.508744 0.517328 0.529944 0.538712 0.521812 0.529944 0.543446 0.55095 0.529944 0.538712 0.55095 0.558643 0.402055 0.408473 0.42116 0.427959 0.408473 0.414891 0.427959 0.434758 0.42116 0.427959 0.440266 0.447446 0.427959 0.434758 0.447446 0.454626 0.468686 0.475814 0.496287 0.503799 0.475814 0.482943 0.503799 0.51133 0.496287 0.503799 0.512562 0.520281 0.503799 0.51133 0.520281 0.528001 0.482943 0.490106 0.51133 0.518899 0.490106 0.497549 0.518899 0.526512 0.51133 0.518899 0.528001 0.53572 0.518899 0.526512 0.53572 0.543439 0.414891 0.421308 0.434758 0.441482 0.421308 0.427726 0.441482 0.448206 0.434758 0.441482 0.454626 0.461656 0.441482 0.448206 0.461656 0.468686 0.497546 0.52651 0.50486 0.534168 0.52651 0.543439 0.534168 0.551159 0.50486 0.534168 0.512097 0.541833 0.534168 0.551159 0.541833 0.558878 0.427726 0.434423 0.448206 0.455119 0.434423 0.44112 0.455119 0.462031 0.448206 0.455119 0.468686 0.475814 0.455119 0.462031 0.475814 0.482943 0.512097 0.541833 0.520049 0.549461 0.541833 0.558878 0.549461 0.566597 0.520049 0.549461 0.528224 0.557149 0.549461 0.566597 0.557149 0.574317 0.44065 0.462849 0.448552 0.470609 0.462849 0.485049 0.470609 0.492667 0.448552 0.470609 0.456453 0.478369 0.470609 0.492667 0.478369 0.500286 0.528224 0.557149 0.535797 0.564941 0.557149 0.574317 0.564941 0.582036 0.535797 0.564941 0.543369 0.572748 0.564941 0.582036 0.572748 0.589755 0.44112 0.447985 0