# vtk DataFile Version 3.0
#This file was generated by the deal.II library on 2015/5/12 at 16: 3:48
ASCII
DATASET UNSTRUCTURED_GRID

POINTS 2692 double
0 0 0
5 0 0
0 5 0
5 5 0
5 0 0
10 0 0
5 5 0
10 5 0
0 5 0
5 5 0
0 10 0
5 10 0
5 5 0
10 5 0
5 10 0
10 10 0
0 -5 0
2.5 -5 0
0 -2.5 0
2.5 -2.5 0
2.5 -5 0
5 -5 0
2.5 -2.5 0
5 -2.5 0
0 -2.5 0
2.5 -2.5 0
0 0 0
2.5 0 0
2.5 -2.5 0
5 -2.5 0
2.5 0 0
5 0 0
5 -5 0
7.5 -5 0
5 -2.5 0
7.5 -2.5 0
7.5 -5 0
10 -5 0
7.5 -2.5 0
10 -2.5 0
5 -2.5 0
7.5 -2.5 0
5 0 0
7.5 0 0
7.5 -2.5 0
10 -2.5 0
7.5 0 0
10 0 0
-5 0 0
-2.5 0 0
-5 2.5 0
-2.5 2.5 0
-2.5 0 0
0 0 0
-2.5 2.5 0
0 2.5 0
-5 2.5 0
-2.5 2.5 0
-5 5 0
-2.5 5 0
-2.5 2.5 0
0 2.5 0
-2.5 5 0
0 5 0
-5 -5 0
-2.5 -5 0
-5 -2.5 0
-2.5 -2.5 0
-2.5 -5 0
0 -5 0
-2.5 -2.5 0
0 -2.5 0
-5 -2.5 0
-2.5 -2.5 0
-5 0 0
-2.5 0 0
-2.5 -2.5 0
0 -2.5 0
-2.5 0 0
0 0 0
-2.5 5 0
0 5 0
-2.5 7.5 0
0 7.5 0
-5 7.5 0
-2.5 7.5 0
-5 10 0
-2.5 10 0
-2.5 7.5 0
0 7.5 0
-2.5 10 0
0 10 0
2.5 -7.5 0
3.75 -7.5 0
2.5 -6.25 0
3.75 -6.25 0
3.75 -7.5 0
5 -7.5 0
3.75 -6.25 0
5 -6.25 0
2.5 -6.25 0
3.75 -6.25 0
2.5 -5 0
3.75 -5 0
3.75 -6.25 0
5 -6.25 0
3.75 -5 0
5 -5 0
-7.5 -7.5 0
-6.25 -7.5 0
-7.5 -6.25 0
-6.25 -6.25 0
-6.25 -7.5 0
-5 -7.5 0
-6.25 -6.25 0
-5 -6.25 0
-7.5 -6.25 0
-6.25 -6.25 0
-7.5 -5 0
-6.25 -5 0
-6.25 -6.25 0
-5 -6.25 0
-6.25 -5 0
-5 -5 0
0 -7.5 0
1.25 -7.5 0
0 -6.25 0
1.25 -6.25 0
1.25 -7.5 0
2.5 -7.5 0
1.25 -6.25 0
2.5 -6.25 0
0 -6.25 0
1.25 -6.25 0
0 -5 0
1.25 -5 0
1.25 -6.25 0
2.5 -6.25 0
1.25 -5 0
2.5 -5 0
-7.5 0 0
-6.25 0 0
-7.5 1.25 0
-6.25 1.25 0
-6.25 0 0
-5 0 0
-6.25 1.25 0
-5 1.25 0
-7.5 1.25 0
-6.25 1.25 0
-7.5 2.5 0
-6.25 2.5 0
-6.25 1.25 0
-5 1.25 0
-6.25 2.5 0
-5 2.5 0
-5 -7.5 0
-3.75 -7.5 0
-5 -6.25 0
-3.75 -6.25 0
-3.75 -7.5 0
-2.5 -7.5 0
-3.75 -6.25 0
-2.5 -6.25 0
-5 -6.25 0
-3.75 -6.25 0
-5 -5 0
-3.75 -5 0
-3.75 -6.25 0
-2.5 -6.25 0
-3.75 -5 0
-2.5 -5 0
5 -7.5 0
6.25 -7.5 0
5 -6.25 0
6.25 -6.25 0
6.25 -7.5 0
7.5 -7.5 0
6.25 -6.25 0
7.5 -6.25 0
5 -6.25 0
6.25 -6.25 0
5 -5 0
6.25 -5 0
6.25 -6.25 0
7.5 -6.25 0
6.25 -5 0
7.5 -5 0
-6.25 2.5 0
-5 2.5 0
-6.25 3.75 0
-5 3.75 0
-6.25 3.75 0
-5 3.75 0
-6.25 5 0
-5 5 0
-7.5 -5 0
-6.25 -5 0
-7.5 -3.75 0
-6.25 -3.75 0
-6.25 -5 0
-5 -5 0
-6.25 -3.75 0
-5 -3.75 0
-7.5 -3.75 0
-6.25 -3.75 0
-7.5 -2.5 0
-6.25 -2.5 0
-6.25 -3.75 0
-5 -3.75 0
-6.25 -2.5 0
-5 -2.5 0
-10 5 0
-8.75 5 0
-10 6.25 0
-8.75 6.25 0
-10 6.25 0
-8.75 6.25 0
-10 7.5 0
-8.75 7.5 0
7.5 -10 0
8.75 -10 0
7.5 -8.75 0
8.75 -8.75 0
8.75 -10 0
10 -10 0
8.75 -8.75 0
10 -8.75 0
7.5 -8.75 0
8.75 -8.75 0
7.5 -7.5 0
8.75 -7.5 0
8.75 -8.75 0
10 -8.75 0
8.75 -7.5 0
10 -7.5 0
-6.25 5 0
-5 5 0
-6.25 6.25 0
-5 6.25 0
-6.25 6.25 0
-5 6.25 0
-6.25 7.5 0
-5 7.5 0
-2.5 -7.5 0
-1.25 -7.5 0
-2.5 -6.25 0
-1.25 -6.25 0
-1.25 -7.5 0
0 -7.5 0
-1.25 -6.25 0
0 -6.25 0
-2.5 -6.25 0
-1.25 -6.25 0
-2.5 -5 0
-1.25 -5 0
-1.25 -6.25 0
0 -6.25 0
-1.25 -5 0
0 -5 0
-7.5 -2.5 0
-6.25 -2.5 0
-7.5 -1.25 0
-6.25 -1.25 0
-6.25 -2.5 0
-5 -2.5 0
-6.25 -1.25 0
-5 -1.25 0
-7.5 -1.25 0
-6.25 -1.25 0
-7.5 0 0
-6.25 0 0
-6.25 -1.25 0
-5 -1.25 0
-6.25 0 0
-5 0 0
-10 7.5 0
-8.75 7.5 0
-10 8.75 0
-8.75 8.75 0
-10 8.75 0
-8.75 8.75 0
-10 10 0
-8.75 10 0
-8.75 8.75 0
-7.5 8.75 0
-8.75 10 0
-7.5 10 0
-6.25 7.5 0
-5 7.5 0
-6.25 8.75 0
-5 8.75 0
-6.25 8.75 0
-5 8.75 0
-6.25 10 0
-5 10 0
8.75 -7.5 0
10 -7.5 0
8.75 -6.25 0
10 -6.25 0
7.5 -6.25 0
8.75 -6.25 0
7.5 -5 0
8.75 -5 0
8.75 -6.25 0
10 -6.25 0
8.75 -5 0
10 -5 0
-5 5 0
-3.75 5 0
-5 6.25 0
-3.75 6.25 0
-3.75 5 0
-2.5 5 0
-3.75 6.25 0
-2.5 6.25 0
-5 6.25 0
-3.75 6.25 0
-5 7.5 0
-3.75 7.5 0
-3.75 6.25 0
-2.5 6.25 0
-3.75 7.5 0
-2.5 7.5 0
-7.5 -8.125 0
-6.875 -8.125 0
-7.5 -7.5 0
-6.875 -7.5 0
-6.875 -8.125 0
-6.25 -8.125 0
-6.875 -7.5 0
-6.25 -7.5 0
0.625 -8.75 0
1.25 -8.75 0
0.625 -8.125 0
1.25 -8.125 0
0 -8.125 0
0.625 -8.125 0
0 -7.5 0
0.625 -7.5 0
0.625 -8.125 0
1.25 -8.125 0
0.625 -7.5 0
1.25 -7.5 0
1.25 -8.75 0
1.875 -8.75 0
1.25 -8.125 0
1.875 -8.125 0
1.875 -8.75 0
2.5 -8.75 0
1.875 -8.125 0
2.5 -8.125 0
1.25 -8.125 0
1.875 -8.125 0
1.25 -7.5 0
1.875 -7.5 0
1.875 -8.125 0
2.5 -8.125 0
1.875 -7.5 0
2.5 -7.5 0
-6.25 -8.125 0
-5.625 -8.125 0
-6.25 -7.5 0
-5.625 -7.5 0
-5.625 -8.125 0
-5 -8.125 0
-5.625 -7.5 0
-5 -7.5 0
-8.125 0 0
-7.5 0 0
-8.125 0.625 0
-7.5 0.625 0
-8.75 0.625 0
-8.125 0.625 0
-8.75 1.25 0
-8.125 1.25 0
-8.125 0.625 0
-7.5 0.625 0
-8.125 1.25 0
-7.5 1.25 0
-8.75 1.25 0
-8.125 1.25 0
-8.75 1.875 0
-8.125 1.875 0
-8.125 1.25 0
-7.5 1.25 0
-8.125 1.875 0
-7.5 1.875 0
-8.75 1.875 0
-8.125 1.875 0
-8.75 2.5 0
-8.125 2.5 0
-8.125 1.875 0
-7.5 1.875 0
-8.125 2.5 0
-7.5 2.5 0
-8.125 -7.5 0
-7.5 -7.5 0
-8.125 -6.875 0
-7.5 -6.875 0
-8.125 -6.875 0
-7.5 -6.875 0
-8.125 -6.25 0
-7.5 -6.25 0
-8.125 -6.25 0
-7.5 -6.25 0
-8.125 -5.625 0
-7.5 -5.625 0
-8.125 -5.625 0
-7.5 -5.625 0
-8.125 -5 0
-7.5 -5 0
-4.375 -8.75 0
-3.75 -8.75 0
-4.375 -8.125 0
-3.75 -8.125 0
-5 -8.125 0
-4.375 -8.125 0
-5 -7.5 0
-4.375 -7.5 0
-4.375 -8.125 0
-3.75 -8.125 0
-4.375 -7.5 0
-3.75 -7.5 0
-8.125 -8.125 0
-7.5 -8.125 0
-8.125 -7.5 0
-7.5 -7.5 0
-3.75 -8.75 0
-3.125 -8.75 0
-3.75 -8.125 0
-3.125 -8.125 0
-3.125 -8.75 0
-2.5 -8.75 0
-3.125 -8.125 0
-2.5 -8.125 0
-3.75 -8.125 0
-3.125 -8.125 0
-3.75 -7.5 0
-3.125 -7.5 0
-3.125 -8.125 0
-2.5 -8.125 0
-3.125 -7.5 0
-2.5 -7.5 0
-8.125 2.5 0
-7.5 2.5 0
-8.125 3.125 0
-7.5 3.125 0
-8.125 -5 0
-7.5 -5 0
-8.125 -4.375 0
-7.5 -4.375 0
-8.75 -4.375 0
-8.125 -4.375 0
-8.75 -3.75 0
-8.125 -3.75 0
-8.125 -4.375 0
-7.5 -4.375 0
-8.125 -3.75 0
-7.5 -3.75 0
1.25 -10 0
1.875 -10 0
1.25 -9.375 0
1.875 -9.375 0
-10 3.75 0
-9.375 3.75 0
-10 4.375 0
-9.375 4.375 0
-10 4.375 0
-9.375 4.375 0
-10 5 0
-9.375 5 0
-9.375 4.375 0
-8.75 4.375 0
-9.375 5 0
-8.75 5 0
-8.75 3.75 0
-8.125 3.75 0
-8.75 4.375 0
-8.125 4.375 0
-8.125 3.75 0
-7.5 3.75 0
-8.125 4.375 0
-7.5 4.375 0
-8.75 4.375 0
-8.125 4.375 0
-8.75 5 0
-8.125 5 0
-8.125 4.375 0
-7.5 4.375 0
-8.125 5 0
-7.5 5 0
3.125 -10 0
3.75 -10 0
3.125 -9.375 0
3.75 -9.375 0
3.125 -8.75 0
3.75 -8.75 0
3.125 -8.125 0
3.75 -8.125 0
2.5 -8.125 0
3.125 -8.125 0
2.5 -7.5 0
3.125 -7.5 0
3.125 -8.125 0
3.75 -8.125 0
3.125 -7.5 0
3.75 -7.5 0
5 -8.125 0
5.625 -8.125 0
5 -7.5 0
5.625 -7.5 0
5.625 -8.125 0
6.25 -8.125 0
5.625 -7.5 0
6.25 -7.5 0
5.625 -10 0
6.25 -10 0
5.625 -9.375 0
6.25 -9.375 0
5.625 -9.375 0
6.25 -9.375 0
5.625 -8.75 0
6.25 -8.75 0
-2.5 -8.75 0
-1.875 -8.75 0
-2.5 -8.125 0
-1.875 -8.125 0
-2.5 -8.125 0
-1.875 -8.125 0
-2.5 -7.5 0
-1.875 -7.5 0
-1.875 -8.125 0
-1.25 -8.125 0
-1.875 -7.5 0
-1.25 -7.5 0
3.75 -10 0
4.375 -10 0
3.75 -9.375 0
4.375 -9.375 0
4.375 -10 0
5 -10 0
4.375 -9.375 0
5 -9.375 0
3.75 -9.375 0
4.375 -9.375 0
3.75 -8.75 0
4.375 -8.75 0
4.375 -9.375 0
5 -9.375 0
4.375 -8.75 0
5 -8.75 0
-1.25 -8.125 0
-0.625 -8.125 0
-1.25 -7.5 0
-0.625 -7.5 0
-0.625 -8.125 0
0 -8.125 0
-0.625 -7.5 0
0 -7.5 0
-8.75 -3.75 0
-8.125 -3.75 0
-8.75 -3.125 0
-8.125 -3.125 0
-8.125 -3.75 0
-7.5 -3.75 0
-8.125 -3.125 0
-7.5 -3.125 0
-8.75 -3.125 0
-8.125 -3.125 0
-8.75 -2.5 0
-8.125 -2.5 0
-8.125 -3.125 0
-7.5 -3.125 0
-8.125 -2.5 0
-7.5 -2.5 0
-8.75 -2.5 0
-8.125 -2.5 0
-8.75 -1.875 0
-8.125 -1.875 0
-8.125 -2.5 0
-7.5 -2.5 0
-8.125 -1.875 0
-7.5 -1.875 0
-8.125 -1.875 0
-7.5 -1.875 0
-8.125 -1.25 0
-7.5 -1.25 0
-8.125 -1.25 0
-7.5 -1.25 0
-8.125 -0.625 0
-7.5 -0.625 0
-8.125 -0.625 0
-7.5 -0.625 0
-8.125 0 0
-7.5 0 0
3.75 -8.75 0
4.375 -8.75 0
3.75 -8.125 0
4.375 -8.125 0
3.75 -8.125 0
4.375 -8.125 0
3.75 -7.5 0
4.375 -7.5 0
4.375 -8.125 0
5 -8.125 0
4.375 -7.5 0
5 -7.5 0
-8.75 5 0
-8.125 5 0
-8.75 5.625 0
-8.125 5.625 0
-8.75 5.625 0
-8.125 5.625 0
-8.75 6.25 0
-8.125 6.25 0
-8.125 5.625 0
-7.5 5.625 0
-8.125 6.25 0
-7.5 6.25 0
6.25 -8.75 0
6.875 -8.75 0
6.25 -8.125 0
6.875 -8.125 0
6.875 -8.75 0
7.5 -8.75 0
6.875 -8.125 0
7.5 -8.125 0
6.25 -8.125 0
6.875 -8.125 0
6.25 -7.5 0
6.875 -7.5 0
6.875 -8.125 0
7.5 -8.125 0
6.875 -7.5 0
7.5 -7.5 0
6.25 -10 0
6.875 -10 0
6.25 -9.375 0
6.875 -9.375 0
6.875 -10 0
7.5 -10 0
6.875 -9.375 0
7.5 -9.375 0
6.875 -9.375 0
7.5 -9.375 0
6.875 -8.75 0
7.5 -8.75 0
-7.5 3.75 0
-6.875 3.75 0
-7.5 4.375 0
-6.875 4.375 0
-6.875 3.75 0
-6.25 3.75 0
-6.875 4.375 0
-6.25 4.375 0
-7.5 4.375 0
-6.875 4.375 0
-7.5 5 0
-6.875 5 0
-6.875 4.375 0
-6.25 4.375 0
-6.875 5 0
-6.25 5 0
-6.875 5 0
-6.25 5 0
-6.875 5.625 0
-6.25 5.625 0
-7.5 5.625 0
-6.875 5.625 0
-7.5 6.25 0
-6.875 6.25 0
-6.875 5.625 0
-6.25 5.625 0
-6.875 6.25 0
-6.25 6.25 0
-7.5 2.5 0
-6.875 2.5 0
-7.5 3.125 0
-6.875 3.125 0
-6.875 2.5 0
-6.25 2.5 0
-6.875 3.125 0
-6.25 3.125 0
-7.5 3.125 0
-6.875 3.125 0
-7.5 3.75 0
-6.875 3.75 0
-6.875 3.125 0
-6.25 3.125 0
-6.875 3.75 0
-6.25 3.75 0
-8.75 6.25 0
-8.125 6.25 0
-8.75 6.875 0
-8.125 6.875 0
-8.75 6.875 0
-8.125 6.875 0
-8.75 7.5 0
-8.125 7.5 0
-8.75 7.5 0
-8.125 7.5 0
-8.75 8.125 0
-8.125 8.125 0
-8.125 7.5 0
-7.5 7.5 0
-8.125 8.125 0
-7.5 8.125 0
-8.75 8.125 0
-8.125 8.125 0
-8.75 8.75 0
-8.125 8.75 0
-8.125 8.125 0
-7.5 8.125 0
-8.125 8.75 0
-7.5 8.75 0
-7.5 7.5 0
-6.875 7.5 0
-7.5 8.125 0
-6.875 8.125 0
-6.875 7.5 0
-6.25 7.5 0
-6.875 8.125 0
-6.25 8.125 0
-7.5 8.125 0
-6.875 8.125 0
-7.5 8.75 0
-6.875 8.75 0
-6.875 8.125 0
-6.25 8.125 0
-6.875 8.75 0
-6.25 8.75 0
-6.875 6.25 0
-6.25 6.25 0
-6.875 6.875 0
-6.25 6.875 0
-6.875 6.875 0
-6.25 6.875 0
-6.875 7.5 0
-6.25 7.5 0
-7.5 8.75 0
-6.875 8.75 0
-7.5 9.375 0
-6.875 9.375 0
-6.875 8.75 0
-6.25 8.75 0
-6.875 9.375 0
-6.25 9.375 0
-7.5 9.375 0
-6.875 9.375 0
-7.5 10 0
-6.875 10 0
-6.875 9.375 0
-6.25 9.375 0
-6.875 10 0
-6.25 10 0
7.5 -7.5 0
8.125 -7.5 0
7.5 -6.875 0
8.125 -6.875 0
8.125 -7.5 0
8.75 -7.5 0
8.125 -6.875 0
8.75 -6.875 0
7.5 -6.875 0
8.125 -6.875 0
7.5 -6.25 0
8.125 -6.25 0
8.125 -6.875 0
8.75 -6.875 0
8.125 -6.25 0
8.75 -6.25 0
-10 -10 0
-9.6875 -10 0
-10 -9.6875 0
-9.6875 -9.6875 0
-9.6875 -10 0
-9.375 -10 0
-9.6875 -9.6875 0
-9.375 -9.6875 0
-10 -9.6875 0
-9.6875 -9.6875 0
-10 -9.375 0
-9.6875 -9.375 0
-9.6875 -9.6875 0
-9.375 -9.6875 0
-9.6875 -9.375 0
-9.375 -9.375 0
-9.375 -10 0
-9.0625 -10 0
-9.375 -9.6875 0
-9.0625 -9.6875 0
-9.0625 -10 0
-8.75 -10 0
-9.0625 -9.6875 0
-8.75 -9.6875 0
[...]
POINT_DATA 2692
SCALARS V double 1
LOOKUP_TABLE default
0.0155582 -0.0070795 -0.0242548 0.0064464 -0.0070795 0 0.0064464 0 -0.0242548 0.0064464 0 0 0.0064464 0 0 0 0.00105809 0.00996476 0.00939006 0.00754085 0.00996476 0.0287603 0.00754085 0.00451993 0.00939006 0.00754085 0.0155582 0.00423934 0.00754085 0.00451993 0.00423934 -0.0070795 0.0287603 -0.0154713 0.00451993 0.00888418 -0.0154713 0 0.00888418 0 0.00451993 0.00888418 -0.0070795 -0.00353975 0.00888418 0 -0.00353975 0 -0.00211105 0.0075455 0.051198 0.0318444 0.0075455 0.0155582 0.0318444 -0.00434832 0.051198 0.0318444 0.0749777 0.0547636 0.0318444 -0.00434832 0.0547636 -0.0242548 0.00591581 0.00301727 0.000166033 0.00596468 0.00301727 0.00105809 0.00596468 0.00939006 0.000166033 0.00596468 -0.00211105 0.0075455 0.00596468 0.00939006 0.0075455 0.0155582 0.0547636 -0.0242548 0.030369 -0.0121274 0.0284769 0.030369 0 0 0.030369 -0.0121274 0 0 0.0232177 0.123042 0.0223522 0.0925612 0.123042 0.063701 0.0925612 0.125577 0.0223522 0.0925612 0.00996476 0.0193625 0.0925612 0.125577 0.0193625 0.0287603 -0.00276379 -0.00141605 -0.0017511 -0.00619729 -0.00141605 0.00200948 -0.00619729 -0.000665057 -0.0017511 -0.00619729 0.00149516 -0.00110158 -0.00619729 -0.000665057 -0.00110158 0.00591581 0.00364691 -0.000652714 0.00228614 0.00478768 -0.000652714 0.0232177 0.00478768 0.0223522 0.00228614 0.00478768 0.00105809 0.00551142 0.00478768 0.0223522 0.00551142 0.00996476 -0.0129569 -0.00911248 -0.0328705 -0.0115765 -0.00911248 -0.00211105 -0.0115765 0.0245435 -0.0328705 -0.0115765 -0.145627 -0.0316245 -0.0115765 0.0245435 -0.0316245 0.051198 0.00200948 -0.000693157 -0.000665057 0.000201188 -0.000693157 -0.00275251 0.000201188 0.00125817 -0.000665057 0.000201188 0.00591581 0.00446654 0.000201188 0.00125817 0.00446654 0.00301727 0.063701 -0.189657 0.125577 -0.0464903 -0.189657 -0.247187 -0.0464903 -0.205134 0.125577 -0.0464903 0.0287603 0.00664449 -0.0464903 -0.205134 0.00664449 -0.0154713 -0.0316245 0.051198 -0.157281 0.0630879 -0.157281 0.0630879 -0.29522 0.0749777 0.00149516 -0.00110158 -7.58657e-05 0.000110409 -0.00110158 0.00591581 0.000110409 0.00304092 -7.58657e-05 0.000110409 -0.00213049 0.000662253 0.000110409 0.00304092 0.000662253 0.000166033 3.43413 1.05886 2.82089 1.10582 2.82089 1.10582 2.20765 0.8452 2.20765 1.59442 0.683014 0.711835 1.59442 0.981179 0.711835 0.367942 0.683014 0.711835 -0.247187 -0.0985467 0.711835 0.367942 -0.0985467 0 -0.29522 0.0749777 -0.293535 0.0517273 -0.293535 0.0517273 -0.244545 0.0284769 -0.00275251 -0.000160929 0.00125817 0.00168954 -0.000160929 0.00364691 0.00168954 0.00228614 0.00125817 0.00168954 0.00301727 0.00203768 0.00168954 0.00228614 0.00203768 0.00105809 -0.00213049 0.000662253 -0.00489343 -0.00386277 0.000662253 0.000166033 -0.00386277 -0.000972507 -0.00489343 -0.00386277 -0.0129569 -0.00911248 -0.00386277 -0.000972507 -0.00911248 -0.00211105 2.20765 0.8452 1.59442 0.663269 1.59442 0.663269 0.981179 0.367942 0.663269 -0.153149 0.367942 0 -0.244545 0.0284769 -0.143885 0.0142384 -0.143885 0.0142384 0 0 -0.0985467 0 -0.127298 0 -0.205134 -0.127298 -0.0154713 -0.00773567 -0.127298 0 -0.00773567 0 0.0749777 0.0648706 0.0517273 0.0471468 0.0648706 0.0547636 0.0471468 0.0425663 0.0517273 0.0471468 0.0284769 0.0294229 0.0471468 0.0425663 0.0294229 0.030369 0.0249245 0.0174469 -0.00276379 -0.00208992 0.0174469 0.0146016 -0.00208992 -0.00141605 0.270453 0.331497 0.00856574 0.029633 0.013919 0.00856574 0.00364691 0.0014971 0.00856574 0.029633 0.0014971 -0.000652714 0.331497 0.349784 0.029633 0.0312842 0.349784 0.323365 0.0312842 0.0267346 0.029633 0.0312842 -0.000652714 0.0112825 0.0312842 0.0267346 0.0112825 0.0232177 0.0146016 0.0201731 -0.00141605 0.000296715 0.0201731 0.0188638 0.000296715 0.00200948 0.00505415 -0.0129569 -0.00728793 -0.0229137 0.266339 -0.00728793 0.318222 -1.86097e-05 -0.00728793 -0.0229137 -1.86097e-05 -0.0328705 0.318222 -1.86097e-05 0.301767 -0.0349009 -1.86097e-05 -0.0328705 -0.0349009 -0.0892486 0.301767 -0.0349009 0.198023 -0.155399 -0.0349009 -0.0892486 -0.155399 -0.145627 0.0248978 -0.00276379 0.0173535 -0.00225745 0.0173535 -0.00225745 0.0144186 -0.0017511 0.0144186 -0.0017511 0.019904 -0.000127968 0.019904 -0.000127968 0.0186348 0.00149516 0.286073 0.312687 0.00534134 0.0256335 0.0188638 0.00534134 0.00200948 0.000658161 0.00534134 0.0256335 0.000658161 -0.000693157 0.0405643 0.0249245 0.0248978 -0.00276379 0.312687 0.30522 0.0256335 0.0208708 0.30522 0.290896 0.0208708 0.0218083 0.0256335 0.0208708 -0.000693157 -0.00172284 0.0208708 0.0218083 -0.00172284 -0.00275251 -0.155399 -0.145627 -0.286315 -0.278852 0.0186348 0.00149516 0.00532378 0.000709648 0.28606 0.00532378 0.31271 0.0259246 0.00532378 0.000709648 0.0259246 -7.58657e-05 5.27384 4.96722 1.92719 1.89838 4.04736 1.82404 3.74075 2.02991 3.74075 2.02991 3.43413 2.24051 2.02991 0.667943 2.24051 1.05886 0.293545 -0.347206 0.667943 -0.0921401 -0.347206 -0.412076 -0.0921401 -0.389823 0.667943 -0.0921401 1.05886 0.167706 -0.0921401 -0.389823 0.167706 -0.366717 4.35398 4.04736 1.62714 1.55707 0.284124 0.29703 0.0514573 0.0805305 0.0267346 0.0514573 0.0232177 0.0731298 0.0514573 0.0805305 0.0731298 0.123042 -0.0546219 -0.157709 0.063701 -0.0629781 -0.157709 -0.200276 -0.0629781 -0.189657 3.12751 2.82089 1.35247 1.31982 1.35247 1.31982 0.172613 0.214147 0.290896 0.253012 0.0218083 0.00141004 0.0218083 0.00141004 -0.00275251 -0.00145672 0.00141004 0.0106486 -0.00145672 -0.000160929 4.04736 3.74075 1.55707 1.52283 3.74075 3.43413 1.52283 1.40177 1.55707 1.52283 0.29703 0.277757 1.52283 1.40177 0.277757 0.215861 0.0106486 0.0116729 -0.000160929 0.00174299 0.0116729 0.013919 0.00174299 0.00364691 0.31271 0.0259246 0.305277 0.0214474 0.0259246 -7.58657e-05 0.0214474 -0.00110318 0.305277 0.0214474 0.290915 0.0220574 0.0214474 -0.00110318 0.0220574 -0.00213049 0.290915 0.0220574 0.252889 0.000516892 0.0220574 -0.00213049 0.000516892 -0.00351196 0.000516892 -0.00351196 0.00787206 -0.00489343 0.00787206 -0.00489343 0.00677229 -0.00892519 0.00677229 -0.00892519 0.00505415 -0.0129569 0.29703 0.277757 0.0805305 0.00467502 0.0805305 0.00467502 0.123042 0.0933715 0.00467502 -0.0546219 0.0933715 0.063701 1.05886 0.167706 1.10304 0.290807 1.10304 0.290807 1.10582 0.319953 0.290807 -0.344999 0.319953 -0.329384 0.214147 0.442049 -0.200276 -0.0667126 0.442049 0.683014 -0.0667126 0.190647 -0.200276 -0.0667126 -0.189657 -0.223751 -0.0667126 0.190647 -0.223751 -0.247187 2.82089 2.51427 1.31982 1.36787 2.51427 2.20765 1.36787 1.44533 1.36787 1.44533 0.442049 0.683014 -0.412076 -0.284679 -0.389823 -0.353078 -0.284679 -0.157281 -0.353078 -0.22625 -0.389823 -0.353078 -0.366717 -0.404005 -0.353078 -0.22625 -0.404005 -0.29522 -0.404005 -0.29522 -0.446271 -0.294377 -0.344999 -0.446271 -0.329384 -0.378456 -0.446271 -0.294377 -0.378456 -0.293535 -0.145627 -0.0886256 -0.278852 -0.186652 -0.0886256 -0.0316245 -0.186652 -0.0944526 -0.278852 -0.186652 -0.412076 -0.284679 -0.186652 -0.0944526 -0.284679 -0.157281 1.10582 0.319953 0.975509 0.273618 0.975509 0.273618 0.8452 0.270377 0.8452 0.270377 0.754235 0.262719 0.270377 -0.304446 0.262719 -0.228798 0.754235 0.262719 0.663269 0.25506 0.262719 -0.228798 0.25506 -0.153149 -0.304446 -0.274496 -0.228798 -0.211506 -0.274496 -0.244545 -0.211506 -0.194215 -0.228798 -0.211506 -0.153149 -0.148517 -0.211506 -0.194215 -0.148517 -0.143885 -0.378456 -0.293535 -0.349591 -0.26904 -0.349591 -0.26904 -0.274496 -0.244545 -0.153149 -0.148517 -0.0765744 -0.0742584 -0.148517 -0.143885 -0.0742584 -0.0719424 -0.0765744 -0.0742584 0 0 -0.0742584 -0.0719424 0 0 -0.247187 -0.172867 -0.226161 -0.169542 -0.172867 -0.0985467 -0.169542 -0.112923 -0.226161 -0.169542 -0.205134 -0.166216 -0.169542 -0.112923 -0.166216 -0.127298 10.793 10.6397 10.6397 9.02219 10.6397 10.4864 9.02219 7.69816 10.6397 9.02219 10.4864 7.69816 9.02219 7.69816 7.69816 5.46214 10.4864 10.333 7.69816 6.84855 10.333 10.1797 6.84855 6.40729 7.69816 6.84855 5.46214 4.07214 6.84855 6.40729 4.07214 3.40812 10.4864 7.69816 10.333 6.84855 7.69816 5.46214 6.84855 4.07214 10.333 6.84855 10.1797 6.40729 6.84855 4.07214 6.40729 3.40812 5.46214 4.07214 4.07214 2.36454 4.07214 3.40812 2.36454 1.5711 4.07214 2.36454 3.40812 1.5711 2.36454 1.5711 1.5711 0.72959 10.1797 10.0264 6.40729 6.20095 10.0264 9.87312 6.20095 6.08421 6.40729 6.20095 3.40812 3.16068 6.20095 6.08421 3.16068 3.07371 9.87312 9.71981 6.08421 5.98723 9.71981 9.5665 5.98723 5.89091 6.08421 5.98723 3.07371 3.02068 5.98723 5.89091 3.02068 2.96936 2.96936 2.91819 1.17371 1.14884 2.91819 2.86852 1.14884 1.12579 1.17371 1.14884 0.365631 0.349382 1.14884 1.12579 0.349382 0.336 2.86852 2.81972 1.12579 1.10897 2.81972 2.7718 1.10897 1.09601 1.12579 1.10897 0.336 0.339931 1.10897 1.09601 0.339931 0.318027 10.1797 6.40729 10.0264 6.20095 6.40729 3.40812 6.20095 3.16068 10.0264 6.20095 9.87312 6.08421 6.20095 3.16068 6.08421 3.07371 2.7718 2.72478 1.09601 1.07729 2.72478 2.67763 1.07729 1.05806 1.09601 1.07729 0.318027 0.318621 1.07729 1.05806 0.318621 0.319215 9.87312 6.08421 9.71981 5.98723 6.08421 3.07371 5.98723 3.02068 9.71981 5.98723 9.5665 5.89091 5.98723 3.02068 5.89091 2.96936 2.67763 2.63079 1.05806 1.04041 2.63079 2.5855 1.04041 1.02405 1.05806 1.04041 0.319215 0.313077 1.04041 1.02405 0.313077 0.306939 9.5665 9.41319 5.89091 5.79445 9.41319 9.25988 5.79445 5.69899 5.89091 5.79445 2.96936 2.91819 5.79445 5.69899 2.91819 2.86852 9.25988 9.10657 5.69899 5.60447 9.10657 8.95326 5.60447 5.51022 5.69899 5.60447 2.86852 2.81972 5.60447 5.51022 2.81972 2.7718 2.96936 1.17371 2.9182 1.14885 1.17371 0.365628 1.14885 0.349375 2.9182 1.14885 2.86853 1.1258 1.14885 0.349375 1.1258 0.335989 2.86853 1.1258 2.81973 1.10898 1.1258 0.335989 1.10898 0.339914 2.81973 1.10898 2.77182 1.09603 1.10898 0.339914 1.09603 0.318005 8.95326 8.79995 5.51022 5.41592 8.79995 8.64664 5.41592 5.32163 5.51022 5.41592 2.7718 2.72478 5.41592 5.32163 2.72478 2.67763 8.64664 8.49333 5.32163 5.22765 8.49333 8.34002 5.22765 5.13449 5.32163 5.22765 2.67763 2.63079 5.22765 5.13449 2.63079 2.5855 2.77182 1.09603 2.7248 1.0773 1.09603 0.318005 1.0773 0.318594 2.7248 1.0773 2.67765 1.05808 1.0773 0.318594 1.05808 0.319182 2.67765 1.05808 2.63082 1.04043 1.05808 0.319182 1.04043 0.313045 2.63082 1.04043 2.58552 1.02406 1.04043 0.313045 1.02406 0.306908 9.5665 5.89091 9.41319 5.79445 5.89091 2.96936 5.79445 2.9182 9.41319 5.79445 9.25988 5.69899 5.79445 2.9182 5.69899 2.86853 2.5855 2.54233 1.02405 1.00972 2.54233 2.50151 1.00972 0.995921 1.02405 1.00972 0.306939 0.296506 1.00972 0.995921 0.296506 0.286073 9.25988 5.69899 9.10657 5.60448 5.69899 2.86853 5.60448 2.81973 9.10657 5.60448 8.95326 5.51023 5.60448 2.81973 5.51023 2.77182 3.40812 3.16068 1.5711 1.3014 3.16068 3.07371 1.3014 1.2247 1.5711 1.3014 0.72959 0.449678 1.3014 1.2247 0.449678 0.388069 8.95326 5.51023 8.79995 5.41594 5.51023 2.77182 5.41594 2.7248 8.79995 5.41594 8.64664 5.32165 5.41594 2.7248 5.32165 2.67765 3.07371 3.02068 1.2247 1.19688 3.02068 2.96936 1.19688 1.17371 1.2247 1.19688 0.388069 0.374888 1.19688 1.17371 0.374888 0.365631 8.64664 5.32165 8.49333 5.22766 5.32165 2.67765 5.22766 2.63082 8.49333 5.22766 8.34002 5.13451 5.22766 2.63082 5.13451 2.58552 3.40812 1.5711 3.16068 1.3014 1.5711 0.72959 1.3014 0.449677 3.16068 1.3014 3.07371 1.2247 1.3014 0.449677 1.2247 0.388068 8.34002 8.18672 5.13449 5.04259 8.18672 8.03341 5.04259 4.95142 5.13449 5.04259 2.5855 2.54233 5.04259 4.95142 2.54233 2.50151 8.03341 7.8801 4.95142 4.86023 7.8801 7.72679 4.86023 4.76834 4.95142 4.86023 2.50151 2.46075 4.86023 4.76834 2.46075 2.41729 3.07371 1.2247 3.02068 1.19688 1.2247 0.388068 1.19688 0.374886 3.02068 1.19688 2.96936 1.17371 1.19688 0.374886 1.17371 0.365628 2.50151 2.46075 0.995921 0.981619 2.46075 2.41729 0.981619 0.970577 0.995921 0.981619 0.286073 0.312266 0.981619 0.970577 0.312266 0.312687 7.72679 7.57348 4.76834 4.6751 7.57348 7.42017 4.6751 4.58095 4.76834 4.6751 2.41729 2.37201 4.6751 4.58095 2.37201 2.32483 7.42017 7.26686 4.58095 4.48635 7.26686 7.11355 4.48635 4.39169 4.58095 4.48635 2.32483 2.27694 4.48635 4.39169 2.27694 2.2288 2.41729 2.37201 0.970577 0.954397 2.37201 2.32483 0.954397 0.936287 0.970577 0.954397 0.312687 0.310689 0.954397 0.936287 0.310689 0.30522 2.32483 2.27694 0.936287 0.916968 2.27694 2.2288 0.916968 0.897469 0.936287 0.916968 0.30522 0.299187 0.916968 0.897469 0.299187 0.290896 7.11355 6.96024 4.39169 4.29699 6.96024 6.80693 4.29699 4.2025 4.39169 4.29699 2.2288 2.18109 4.29699 4.2025 2.18109 2.13254 6.80693 6.65362 4.2025 4.10796 6.65362 6.50031 4.10796 4.01316 4.2025 4.10796 2.13254 2.08395 4.10796 4.01316 2.08395 2.03584 2.58552 1.02406 2.54234 1.00973 1.02406 0.306908 1.00973 0.296484 2.54234 1.00973 2.50151 0.995914 1.00973 0.296484 0.995914 0.28606 2.2288 2.18109 0.897469 0.875958 2.18109 2.13254 0.875958 0.858628 0.897469 0.875958 0.290896 0.282641 0.875958 0.858628 0.282641 0.253012 6.50031 6.347 4.01316 3.91869 6.347 6.19369 3.91869 3.82667 4.01316 3.91869 2.03584 1.98806 3.91869 3.82667 1.98806 1.94353 6.19369 6.04039 3.82667 3.74163 6.04039 5.88708 3.74163 3.66922 3.82667 3.74163 1.94353 1.9088 3.74163 3.66922 1.9088 1.89065 2.13254 2.08395 0.858628 0.84055 2.08395 2.03584 0.84055 0.821116 0.858628 0.84055 0.253012 0.254412 0.84055 0.821116 0.254412 0.255811 2.03584 1.98806 0.821116 0.802015 1.98806 1.94353 0.802015 0.785615 0.821116 0.802015 0.255811 0.25092 0.802015 0.785615 0.25092 0.246028 8.34002 5.13451 8.18672 5.0426 5.13451 2.58552 5.0426 2.54234 8.18672 5.0426 8.03341 4.95142 5.0426 2.54234 4.95142 2.50151 1.94353 1.9088 0.785615 0.776199 1.9088 1.89065 0.776199 0.780574 0.785615 0.776199 0.246028 0.248634 0.776199 0.780574 0.248634 0.25124 8.03341 4.95142 7.8801 4.86022 4.95142 2.50151 4.86022 2.46073 7.8801 4.86022 7.72679 4.76832 4.86022 2.46073 4.76832 2.41725 2.50151 0.995914 2.46073 0.981596 0.995914 0.28606 0.981596 0.312272 2.46073 0.981596 2.41725 0.97054 0.981596 0.312272 0.97054 0.31271 7.72679 4.76832 7.57348 4.67507 4.76832 2.41725 4.67507 2.37195 7.57348 4.67507 7.42017 4.58092 4.67507 2.37195 4.58092 2.32477 2.41725 0.97054 2.37195 0.954346 0.97054 0.31271 0.954346 0.310732 2.37195 0.954346 2.32477 0.936228 0.954346 0.310732 0.936228 0.305277 7.42017 4.58092 7.26686 4.48632 4.58092 2.32477 4.48632 2.27687 7.26686 4.48632 7.11355 4.39167 4.48632 2.27687 4.39167 2.22876 2.32477 0.936228 2.27687 0.916913 0.936228 0.305277 0.916913 0.29923 2.27687 0.916913 2.22876 0.897435 0.916913 0.29923 0.897435 0.290915 7.11355 4.39167 6.96024 4.297 4.39167 2.22876 4.297 2.18111 6.96024 4.297 6.80693 4.20255 4.297 2.18111 4.20255 2.13263 2.22876 0.897435 2.18111 0.875966 0.897435 0.290915 0.875966 0.282594 2.18111 0.875966 2.13263 0.8587 0.875966 0.282594 0.8587 0.252889 6.80693 4.20255 6.65362 4.10806 4.20255 2.13263 4.10806 2.08414 6.65362 4.10806 6.50031 4.01331 4.10806 2.08414 4.01331 2.03613 2.13263 0.8587 2.08414 0.840698 0.8587 0.252889 0.840698 0.254206 2.08414 0.840698 2.03613 0.821352 0.840698 0.254206 0.821352 0.255522 6.50031 4.01331 6.347 3.9189 4.01331 2.03613 3.9189 1.98845 6.347 3.9189 6.19369 3.82692 3.9189 1.98845 3.82692 1.94403 2.03613 0.821352 1.98845 0.802347 0.821352 0.255522 0.802347 0.250502 1.98845 0.802347 1.94403 0.786004 0.802347 0.250502 0.786004 0.245481 6.19369 3.82692 6.04039 3.74198 3.82692 1.94403 3.74198 1.90938 6.04039 3.74198 5.88708 3.66969 3.74198 1.90938 3.66969 1.89133 1.94403 0.786004 1.90938 0.776603 0.786004 0.245481 0.776603 0.247653 1.90938 0.776603 1.89133 0.780776 0.776603 0.247653 0.780776 0.249826 5.88708 5.73377 3.66922 3.6094 5.73377 5.58046 3.6094 3.55402 3.66922 3.6094 1.89065 1.89073 3.6094 3.55402 1.89073 1.90004 1.89065 1.89073 0.780574 0.798349 1.89073 1.90004 0.798349 0.824551 0.780574 0.798349 0.25124 0.260847 0.798349 0.824551 0.260847 0.270453 0.336 0.339931 0.115437 0.0918911 0.339931 0.318027 0.0918911 0.166314 0.115437 0.0918911 0.0174469 0.0160242 0.0918911 0.166314 0.0160242 0.0146016 5.58046 5.42715 3.55402 3.5138 5.42715 5.27384 3.5138 3.49639 3.55402 3.5138 1.90004 1.91282 3.5138 3.49639 1.91282 1.92719 1.90004 1.91282 0.824551 0.847755 1.91282 1.92719 0.847755 0.867376 0.824551 0.847755 0.270453 0.313063 0.847755 0.867376 0.313063 0.331497 1.89838 1.85695 0.887182 0.879254 1.85695 1.81551 0.879254 0.854868 0.887182 0.879254 0.349784 0.349131 0.879254 0.854868 0.349131 0.323365 1.89133 0.780776 1.89123 0.798253 0.780776 0.249826 0.798253 0.258082 1.89123 0.798253 1.90003 0.82383 0.798253 0.258082 0.82383 0.266339 0.365631 0.349382 0.141181 0.12964 0.349382 0.336 0.12964 0.115437 0.141181 0.12964 0.0249245 0.0211857 0.12964 0.115437 0.0211857 0.0174469 1.92719 1.9333 0.867376 0.87837 1.9333 1.89838 0.87837 0.887182 0.867376 0.87837 0.331497 0.344905 0.87837 0.887182 0.344905 0.349784 0.25124 0.260847 0.13258 0.136045 0.260847 0.270453 0.136045 0.139509 0.13258 0.136045 0.013919 0.0112424 0.136045 0.139509 0.0112424 0.00856574 5.88708 3.66969 5.73377 3.60877 3.66969 1.89133 3.60877 1.89123 5.73377 3.60877 5.58046 3.55972 3.60877 1.89123 3.55972 1.90003 0.318027 0.318621 0.166314 0.168004 0.318621 0.319215 0.168004 0.169694 0.166314 0.168004 0.0146016 0.0173874 0.168004 0.169694 0.0173874 0.0201731 1.62714 1.58243 0.747862 0.722732 1.58243 1.55707 0.722732 0.792742 0.747862 0.722732 0.284124 0.283137 0.722732 0.792742 0.283137 0.29703 5.58046 3.55972 5.42715 3.49665 3.55972 1.90003 3.49665 1.92076 5.42715 3.49665 5.27384 3.58869 3.49665 1.92076 3.58869 1.90354 1.90003 0.82383 1.92076 0.84522 0.82383 0.266339 0.84522 0.306163 1.92076 0.84522 1.90354 0.868223 0.84522 0.306163 0.868223 0.318222 0.319215 0.313077 0.169694 0.166298 0.313077 0.306939 0.166298 0.162902 0.169694 0.166298 0.0201731 0.0195185 0.166298 0.162902 0.0195185 0.0188638 1.90354 0.868223 1.89409 0.869344 0.868223 0.318222 0.869344 0.317535 1.89409 0.869344 1.88463 0.849062 0.869344 0.317535 0.849062 0.301767 1.88463 0.849062 1.83097 0.812191 0.849062 0.301767 0.812191 0.262285 1.83097 0.812191 1.77731 0.77546 0.812191 0.262285 0.77546 0.198023 0.335989 0.115387 0.339914 0.0918199 0.115387 0.0173535 0.0918199 0.015886 0.339914 0.0918199 0.318005 0.166212 0.0918199 0.015886 0.166212 0.0144186 0.249826 0.12744 0.258082 0.128483 0.12744 0.00505415 0.128483 -0.00111689 0.258082 0.128483 0.266339 0.129526 0.128483 -0.00111689 0.129526 -0.00728793 0.318005 0.166212 0.318594 0.167877 0.166212 0.0144186 0.167877 0.0171613 0.318594 0.167877 0.319182 0.169543 0.167877 0.0171613 0.169543 0.019904 0.319182 0.169543 0.313045 0.166157 0.169543 0.019904 0.166157 0.0192694 0.313045 0.166157 0.306908 0.162771 0.166157 0.0192694 0.162771 0.0186348 0.365628 0.141165 0.349375 0.129609 0.141165 0.0248978 0.129609 0.0211256 0.349375 0.129609 0.335989 0.115387 0.129609 0.0211256 0.115387 0.0173535 0.72959 0.449678 0.449677 0.183467 0.449678 0.388069 0.183467 0.142322 0.449677 0.183467 0.388068 0.14232 0.183467 0.142322 0.14232 0.0405643 1.81551 1.72133 0.854868 0.813803 1.72133 1.62714 0.813803 0.747862 0.854868 0.813803 0.323365 0.303745 0.813803 0.747862 0.303745 0.284124 0.306939 0.296506 0.162902 0.154304 0.296506 0.286073 0.154304 0.145707 0.162902 0.154304 0.0188638 0.0121026 0.154304 0.145707 0.0121026 0.00534134 0.388069 0.374888 0.142322 0.143067 0.374888 0.365631 0.143067 0.141181 0.142322 0.143067 0.0405643 0.0327444 0.143067 0.141181 0.0327444 0.0249245 0.198023 0.0213119 0.182246 -0.0193054 0.0213119 -0.155399 -0.0193054 -0.220857 0.182246 -0.0193054 0.166469 -0.0599227 -0.0193054 -0.220857 -0.0599227 -0.286315 0.388068 0.14232 0.374886 0.14306 0.14232 0.0405643 0.14306 0.0327311 0.374886 0.14306 0.365628 0.141165 0.14306 0.0327311 0.141165 0.0248978 1.77731 0.77546 1.75417 0.742819 0.77546 0.198023 0.742819 0.182246 1.75417 0.742819 1.73103 0.94875 0.742819 0.182246 0.94875 0.166469 0.166469 -0.0599227 0.230007 -0.0433764 -0.0599227 -0.286315 -0.0433764 -0.31676 0.230007 -0.0433764 0.293545 -0.0268301 -0.0433764 -0.31676 -0.0268301 -0.347206 -0.286315 -0.282583 -0.31676 -0.331112 -0.282583 -0.278852 -0.331112 -0.345464 -0.31676 -0.331112 -0.347206 -0.3