# vtk DataFile Version 3.0
#This file was generated by the deal.II library on 2015/5/19 at 10:59:21
ASCII
DATASET UNSTRUCTURED_GRID

POINTS 64 double
-1 -1 0
-0.5 -1 0
-1 -0.5 0
-0.5 -0.5 0
-0.5 -1 0
0 -1 0
-0.5 -0.5 0
0 -0.5 0
-1 -0.5 0
-0.5 -0.5 0
-1 0 0
-0.5 0 0
-0.5 -0.5 0
0 -0.5 0
-0.5 0 0
0 0 0
0 -1 0
0.5 -1 0
0 -0.5 0
0.5 -0.5 0
0.5 -1 0
1 -1 0
0.5 -0.5 0
1 -0.5 0
0 -0.5 0
0.5 -0.5 0
0 0 0
0.5 0 0
0.5 -0.5 0
1 -0.5 0
0.5 0 0
1 0 0
-1 0 0
-0.5 0 0
-1 0.5 0
-0.5 0.5 0
-0.5 0 0
0 0 0
-0.5 0.5 0
0 0.5 0
-1 0.5 0
-0.5 0.5 0
-1 1 0
-0.5 1 0
-0.5 0.5 0
0 0.5 0
-0.5 1 0
0 1 0
0 0 0
0.5 0 0
0 0.5 0
0.5 0.5 0
0.5 0 0
1 0 0
0.5 0.5 0
1 0.5 0
0 0.5 0
0.5 0.5 0
0 1 0
0.5 1 0
0.5 0.5 0
1 0.5 0
0.5 1 0
1 1 0

CELLS 16 80
4	0	1	3	2
4	4	5	7	6
4	8	9	11	10
4	12	13	15	14
4	16	17	19	18
4	20	21	23	22
4	24	25	27	26
4	28	29	31	30
4	32	33	35	34
4	36	37	39	38
4	40	41	43	42
4	44	45	47	46
4	48	49	51	50
4	52	53	55	54
4	56	57	59	58
4	60	61	63	62

CELL_TYPES 16
 9 9 9 9 9 9 9 9 9 9 9 9 9 9 9 9
POINT_DATA 64
SCALARS V double 1
LOOKUP_TABLE default
1.99002 1.74127 1.74127 0.245229 1.74127 1.49252 0.245229 0.0220918 1.74127 0.245229 1.49252 0.0220918 0.245229 0.0220918 0.0220918 -0.154777 1.49252 1.24377 0.0220918 0.148477 1.24377 0.995012 0.148477 0.746259 0.0220918 0.148477 -0.154777 -0.00734678 0.148477 0.746259 -0.00734678 0.497506 1.49252 0.0220918 1.24377 0.148477 0.0220918 -0.154777 0.148477 -0.00734679 1.24377 0.148477 0.995012 0.746259 0.148477 -0.00734679 0.746259 0.497506 -0.154777 -0.00734678 -0.00734679 0.0517251 -0.00734678 0.497506 0.0517251 0.248753 -0.00734679 0.0517251 0.497506 0.248753 0.0517251 0.248753 0.248753 0 
