# vtk DataFile Version 3.0
#This file was generated by the deal.II library on 2015/4/9 at 19:23:45
ASCII
DATASET UNSTRUCTURED_GRID

POINTS 1840 double
-1 -1 0
-0.75 -1 0
-1 -0.75 0
-0.75 -0.75 0
0.75 -1 0
1 -1 0
0.75 -0.75 0
1 -0.75 0
-1 0.75 0
-0.75 0.75 0
-1 1 0
-0.75 1 0
0.75 0.75 0
1 0.75 0
0.75 1 0
1 1 0
-0.5 -1 0
-0.375 -1 0
-0.5 -0.875 0
-0.375 -0.875 0
-0.375 -1 0
-0.25 -1 0
-0.375 -0.875 0
-0.25 -0.875 0
-0.5 -0.875 0
-0.375 -0.875 0
-0.5 -0.75 0
-0.375 -0.75 0
-0.375 -0.875 0
-0.25 -0.875 0
-0.375 -0.75 0
-0.25 -0.75 0
-1 -0.5 0
-0.875 -0.5 0
-1 -0.375 0
-0.875 -0.375 0
-0.875 -0.5 0
-0.75 -0.5 0
-0.875 -0.375 0
-0.75 -0.375 0
-1 -0.375 0
-0.875 -0.375 0
-1 -0.25 0
-0.875 -0.25 0
-0.875 -0.375 0
-0.75 -0.375 0
-0.875 -0.25 0
-0.75 -0.25 0
0 -1 0
0.125 -1 0
0 -0.875 0
0.125 -0.875 0
0.125 -1 0
0.25 -1 0
0.125 -0.875 0
0.25 -0.875 0
0 -0.875 0
0.125 -0.875 0
0 -0.75 0
0.125 -0.75 0
0.125 -0.875 0
0.25 -0.875 0
0.125 -0.75 0
0.25 -0.75 0
0.25 -1 0
0.375 -1 0
0.25 -0.875 0
0.375 -0.875 0
0.375 -1 0
0.5 -1 0
0.375 -0.875 0
0.5 -0.875 0
0.25 -0.875 0
0.375 -0.875 0
0.25 -0.75 0
0.375 -0.75 0
0.375 -0.875 0
0.5 -0.875 0
0.375 -0.75 0
0.5 -0.75 0
0.75 -0.5 0
0.875 -0.5 0
0.75 -0.375 0
0.875 -0.375 0
0.875 -0.5 0
1 -0.5 0
0.875 -0.375 0
1 -0.375 0
0.75 -0.375 0
0.875 -0.375 0
0.75 -0.25 0
0.875 -0.25 0
0.875 -0.375 0
1 -0.375 0
0.875 -0.25 0
1 -0.25 0
0.625 -0.25 0
0.75 -0.25 0
0.625 -0.125 0
0.75 -0.125 0
0.75 -0.25 0
0.875 -0.25 0
0.75 -0.125 0
0.875 -0.125 0
0.875 -0.25 0
1 -0.25 0
0.875 -0.125 0
1 -0.125 0
0.875 -0.125 0
1 -0.125 0
0.875 0 0
1 0 0
-1 0 0
-0.875 0 0
-1 0.125 0
-0.875 0.125 0
-0.875 0 0
-0.75 0 0
-0.875 0.125 0
-0.75 0.125 0
-1 0.125 0
-0.875 0.125 0
-1 0.25 0
-0.875 0.25 0
-0.875 0.125 0
-0.75 0.125 0
-0.875 0.25 0
-0.75 0.25 0
-1 0.25 0
-0.875 0.25 0
-1 0.375 0
-0.875 0.375 0
-0.875 0.25 0
-0.75 0.25 0
-0.875 0.375 0
-0.75 0.375 0
-1 0.375 0
-0.875 0.375 0
-1 0.5 0
-0.875 0.5 0
-0.875 0.375 0
-0.75 0.375 0
-0.875 0.5 0
-0.75 0.5 0
-0.5 0.75 0
-0.375 0.75 0
-0.5 0.875 0
-0.375 0.875 0
-0.375 0.75 0
-0.25 0.75 0
-0.375 0.875 0
-0.25 0.875 0
-0.5 0.875 0
-0.375 0.875 0
-0.5 1 0
-0.375 1 0
-0.375 0.875 0
-0.25 0.875 0
-0.375 1 0
-0.25 1 0
-0.25 0.75 0
-0.125 0.75 0
-0.25 0.875 0
-0.125 0.875 0
-0.125 0.75 0
0 0.75 0
-0.125 0.875 0
0 0.875 0
-0.25 0.875 0
-0.125 0.875 0
-0.25 1 0
-0.125 1 0
-0.125 0.875 0
0 0.875 0
-0.125 1 0
0 1 0
-0.75 -1 0
-0.625 -1 0
-0.75 -0.875 0
-0.625 -0.875 0
-0.625 -1 0
-0.5 -1 0
-0.625 -0.875 0
-0.5 -0.875 0
-0.75 -0.875 0
-0.625 -0.875 0
-0.75 -0.75 0
-0.625 -0.75 0
-0.625 -0.875 0
-0.5 -0.875 0
-0.625 -0.75 0
-0.5 -0.75 0
-1 -0.75 0
-0.875 -0.75 0
-1 -0.625 0
-0.875 -0.625 0
-0.875 -0.75 0
-0.75 -0.75 0
-0.875 -0.625 0
-0.75 -0.625 0
-1 -0.625 0
-0.875 -0.625 0
-1 -0.5 0
-0.875 -0.5 0
-0.875 -0.625 0
-0.75 -0.625 0
-0.875 -0.5 0
-0.75 -0.5 0
-0.75 -0.75 0
-0.625 -0.75 0
-0.75 -0.625 0
-0.625 -0.625 0
0.5 -1 0
0.625 -1 0
0.5 -0.875 0
0.625 -0.875 0
0.625 -1 0
0.75 -1 0
0.625 -0.875 0
0.75 -0.875 0
0.5 -0.875 0
0.625 -0.875 0
0.5 -0.75 0
0.625 -0.75 0
0.625 -0.875 0
0.75 -0.875 0
0.625 -0.75 0
0.75 -0.75 0
0.625 -0.75 0
0.75 -0.75 0
0.625 -0.625 0
0.75 -0.625 0
0.75 -0.75 0
0.875 -0.75 0
0.75 -0.625 0
0.875 -0.625 0
0.875 -0.75 0
1 -0.75 0
0.875 -0.625 0
1 -0.625 0
0.75 -0.625 0
0.875 -0.625 0
0.75 -0.5 0
0.875 -0.5 0
0.875 -0.625 0
1 -0.625 0
0.875 -0.5 0
1 -0.5 0
-1 0.5 0
-0.875 0.5 0
-1 0.625 0
-0.875 0.625 0
-0.875 0.5 0
-0.75 0.5 0
-0.875 0.625 0
-0.75 0.625 0
-1 0.625 0
-0.875 0.625 0
-1 0.75 0
-0.875 0.75 0
-0.875 0.625 0
-0.75 0.625 0
-0.875 0.75 0
-0.75 0.75 0
-0.75 0.625 0
-0.625 0.625 0
-0.75 0.75 0
-0.625 0.75 0
-0.75 0.75 0
-0.625 0.75 0
-0.75 0.875 0
-0.625 0.875 0
-0.625 0.75 0
-0.5 0.75 0
-0.625 0.875 0
-0.5 0.875 0
-0.75 0.875 0
-0.625 0.875 0
-0.75 1 0
-0.625 1 0
-0.625 0.875 0
-0.5 0.875 0
-0.625 1 0
-0.5 1 0
-0.25 -1 0
-0.125 -1 0
-0.25 -0.875 0
-0.125 -0.875 0
-0.125 -1 0
0 -1 0
-0.125 -0.875 0
0 -0.875 0
-0.25 -0.875 0
-0.125 -0.875 0
-0.25 -0.75 0
-0.125 -0.75 0
-0.125 -0.875 0
0 -0.875 0
-0.125 -0.75 0
0 -0.75 0
0.875 0 0
1 0 0
0.875 0.125 0
1 0.125 0
0.875 0.125 0
1 0.125 0
0.875 0.25 0
1 0.25 0
0.75 0.25 0
0.875 0.25 0
0.75 0.375 0
0.875 0.375 0
0.875 0.25 0
1 0.25 0
0.875 0.375 0
1 0.375 0
0.75 0.375 0
0.875 0.375 0
0.75 0.5 0
0.875 0.5 0
0.875 0.375 0
1 0.375 0
0.875 0.5 0
1 0.5 0
0 0.75 0
0.125 0.75 0
0 0.875 0
0.125 0.875 0
0 0.875 0
0.125 0.875 0
0 1 0
0.125 1 0
0.125 0.875 0
0.25 0.875 0
0.125 1 0
0.25 1 0
0.625 0.625 0
0.75 0.625 0
0.625 0.75 0
0.75 0.75 0
0.75 0.5 0
0.875 0.5 0
0.75 0.625 0
0.875 0.625 0
0.875 0.5 0
1 0.5 0
0.875 0.625 0
1 0.625 0
0.75 0.625 0
0.875 0.625 0
0.75 0.75 0
0.875 0.75 0
0.875 0.625 0
1 0.625 0
0.875 0.75 0
1 0.75 0
0.625 0.75 0
0.75 0.75 0
0.625 0.875 0
0.75 0.875 0
0.5 0.875 0
0.625 0.875 0
0.5 1 0
0.625 1 0
0.625 0.875 0
0.75 0.875 0
0.625 1 0
0.75 1 0
-1 -0.25 0
-0.875 -0.25 0
-1 -0.125 0
-0.875 -0.125 0
-0.875 -0.25 0
-0.75 -0.25 0
-0.875 -0.125 0
-0.75 -0.125 0
-1 -0.125 0
-0.875 -0.125 0
-1 0 0
-0.875 0 0
-0.875 -0.125 0
-0.75 -0.125 0
-0.875 0 0
-0.75 0 0
0.125 -0.75 0
0.25 -0.75 0
0.125 -0.625 0
0.25 -0.625 0
-0.75 0.125 0
-0.625 0.125 0
-0.75 0.25 0
-0.625 0.25 0
-0.5 -0.5 0
-0.375 -0.5 0
-0.5 -0.375 0
-0.375 -0.375 0
-0.375 -0.5 0
-0.25 -0.5 0
-0.375 -0.375 0
-0.25 -0.375 0
-0.5 -0.375 0
-0.375 -0.375 0
-0.5 -0.25 0
-0.375 -0.25 0
-0.375 -0.375 0
-0.25 -0.375 0
-0.375 -0.25 0
-0.25 -0.25 0
-0.25 -0.5 0
-0.125 -0.5 0
-0.25 -0.375 0
-0.125 -0.375 0
-0.125 -0.5 0
0 -0.5 0
-0.125 -0.375 0
0 -0.375 0
-0.25 -0.375 0
-0.125 -0.375 0
-0.25 -0.25 0
-0.125 -0.25 0
-0.125 -0.375 0
0 -0.375 0
-0.125 -0.25 0
0 -0.25 0
-0.5 -0.25 0
-0.375 -0.25 0
-0.5 -0.125 0
-0.375 -0.125 0
-0.375 -0.25 0
-0.25 -0.25 0
-0.375 -0.125 0
-0.25 -0.125 0
-0.5 -0.125 0
-0.375 -0.125 0
-0.5 0 0
-0.375 0 0
-0.375 -0.125 0
-0.25 -0.125 0
-0.375 0 0
-0.25 0 0
0.25 0.875 0
0.375 0.875 0
0.25 1 0
0.375 1 0
0.375 0.875 0
0.5 0.875 0
0.375 1 0
0.5 1 0
-0.25 -0.25 0
-0.125 -0.25 0
-0.25 -0.125 0
-0.125 -0.125 0
-0.125 -0.25 0
0 -0.25 0
-0.125 -0.125 0
0 -0.125 0
-0.25 -0.125 0
-0.125 -0.125 0
-0.25 0 0
-0.125 0 0
-0.125 -0.125 0
0 -0.125 0
-0.125 0 0
0 0 0
0 -0.5 0
0.125 -0.5 0
0 -0.375 0
0.125 -0.375 0
0.125 -0.5 0
0.25 -0.5 0
0.125 -0.375 0
0.25 -0.375 0
0 -0.375 0
0.125 -0.375 0
0 -0.25 0
0.125 -0.25 0
0.125 -0.375 0
0.25 -0.375 0
0.125 -0.25 0
0.25 -0.25 0
0.25 -0.5 0
0.375 -0.5 0
0.25 -0.375 0
0.375 -0.375 0
0.375 -0.5 0
0.5 -0.5 0
0.375 -0.375 0
0.5 -0.375 0
0.25 -0.375 0
0.375 -0.375 0
0.25 -0.25 0
0.375 -0.25 0
0.375 -0.375 0
0.5 -0.375 0
0.375 -0.25 0
0.5 -0.25 0
0 -0.25 0
0.125 -0.25 0
0 -0.125 0
0.125 -0.125 0
0.125 -0.25 0
0.25 -0.25 0
0.125 -0.125 0
0.25 -0.125 0
0 -0.125 0
0.125 -0.125 0
0 0 0
0.125 0 0
0.125 -0.125 0
0.25 -0.125 0
0.125 0 0
0.25 0 0
0.25 -0.25 0
0.375 -0.25 0
0.25 -0.125 0
0.375 -0.125 0
0.375 -0.25 0
0.5 -0.25 0
0.375 -0.125 0
0.5 -0.125 0
0.25 -0.125 0
0.375 -0.125 0
0.25 0 0
0.375 0 0
0.375 -0.125 0
0.5 -0.125 0
0.375 0 0
0.5 0 0
-0.5 0 0
-0.375 0 0
-0.5 0.125 0
-0.375 0.125 0
-0.375 0 0
-0.25 0 0
-0.375 0.125 0
-0.25 0.125 0
-0.5 0.125 0
-0.375 0.125 0
-0.5 0.25 0
-0.375 0.25 0
-0.375 0.125 0
-0.25 0.125 0
-0.375 0.25 0
-0.25 0.25 0
-0.25 0 0
-0.125 0 0
-0.25 0.125 0
-0.125 0.125 0
-0.125 0 0
0 0 0
-0.125 0.125 0
0 0.125 0
-0.25 0.125 0
-0.125 0.125 0
-0.25 0.25 0
-0.125 0.25 0
-0.125 0.125 0
0 0.125 0
-0.125 0.25 0
0 0.25 0
-0.5 0.25 0
-0.375 0.25 0
-0.5 0.375 0
-0.375 0.375 0
-0.375 0.25 0
-0.25 0.25 0
-0.375 0.375 0
-0.25 0.375 0
-0.5 0.375 0
-0.375 0.375 0
-0.5 0.5 0
-0.375 0.5 0
-0.375 0.375 0
-0.25 0.375 0
-0.375 0.5 0
-0.25 0.5 0
-0.25 0.25 0
-0.125 0.25 0
-0.25 0.375 0
-0.125 0.375 0
-0.125 0.25 0
0 0.25 0
-0.125 0.375 0
0 0.375 0
-0.25 0.375 0
-0.125 0.375 0
-0.25 0.5 0
-0.125 0.5 0
-0.125 0.375 0
0 0.375 0
-0.125 0.5 0
0 0.5 0
0 0 0
0.125 0 0
0 0.125 0
0.125 0.125 0
0.125 0 0
0.25 0 0
0.125 0.125 0
0.25 0.125 0
0 0.125 0
0.125 0.125 0
0 0.25 0
0.125 0.25 0
0.125 0.125 0
0.25 0.125 0
0.125 0.25 0
0.25 0.25 0
0.25 0 0
0.375 0 0
0.25 0.125 0
0.375 0.125 0
0.375 0 0
0.5 0 0
0.375 0.125 0
0.5 0.125 0
0.25 0.125 0
0.375 0.125 0
0.25 0.25 0
0.375 0.25 0
0.375 0.125 0
0.5 0.125 0
0.375 0.25 0
0.5 0.25 0
0 0.25 0
0.125 0.25 0
0 0.375 0
0.125 0.375 0
0.125 0.25 0
0.25 0.25 0
0.125 0.375 0
0.25 0.375 0
0 0.375 0
0.125 0.375 0
0 0.5 0
0.125 0.5 0
0.125 0.375 0
0.25 0.375 0
0.125 0.5 0
0.25 0.5 0
0.25 0.25 0
0.375 0.25 0
0.25 0.375 0
0.375 0.375 0
0.375 0.25 0
0.5 0.25 0
0.375 0.375 0
0.5 0.375 0
0.25 0.375 0
0.375 0.375 0
0.25 0.5 0
0.375 0.5 0
0.375 0.375 0
0.5 0.375 0
0.375 0.5 0
0.5 0.5 0
0.5 0 0
0.625 0 0
0.5 0.125 0
0.625 0.125 0
0.625 0 0
0.75 0 0
0.625 0.125 0
0.75 0.125 0
0.5 0.125 0
0.625 0.125 0
0.5 0.25 0
0.625 0.25 0
0.625 0.125 0
0.75 0.125 0
0.625 0.25 0
0.75 0.25 0
0.25 0.5 0
0.375 0.5 0
0.25 0.625 0
0.375 0.625 0
0.375 0.5 0
0.5 0.5 0
0.375 0.625 0
0.5 0.625 0
0.25 0.625 0
0.375 0.625 0
0.25 0.75 0
0.375 0.75 0
0.375 0.625 0
0.5 0.625 0
0.375 0.75 0
0.5 0.75 0
0.5 -0.25 0
0.5625 -0.25 0
0.5 -0.1875 0
0.5625 -0.1875 0
0.5625 -0.25 0
0.625 -0.25 0
0.5625 -0.1875 0
0.625 -0.1875 0
0.5 -0.1875 0
0.5625 -0.1875 0
0.5 -0.125 0
0.5625 -0.125 0
0.5625 -0.1875 0
0.625 -0.1875 0
0.5625 -0.125 0
0.625 -0.125 0
0.5 -0.125 0
0.5625 -0.125 0
0.5 -0.0625 0
0.5625 -0.0625 0
0.5625 -0.125 0
0.625 -0.125 0
0.5625 -0.0625 0
0.625 -0.0625 0
0.5 -0.0625 0
0.5625 -0.0625 0
0.5 0 0
0.5625 0 0
0.5625 -0.0625 0
0.625 -0.0625 0
0.5625 0 0
0.625 0 0
0.625 -0.125 0
0.6875 -0.125 0
0.625 -0.0625 0
0.6875 -0.0625 0
0.6875 -0.125 0
0.75 -0.125 0
0.6875 -0.0625 0
0.75 -0.0625 0
0.625 -0.0625 0
0.6875 -0.0625 0
0.625 0 0
0.6875 0 0
0.6875 -0.0625 0
0.75 -0.0625 0
0.6875 0 0
0.75 0 0
0.75 -0.125 0
0.8125 -0.125 0
0.75 -0.0625 0
0.8125 -0.0625 0
0.8125 -0.125 0
0.875 -0.125 0
0.8125 -0.0625 0
0.875 -0.0625 0
0.75 -0.0625 0
0.8125 -0.0625 0
0.75 0 0
0.8125 0 0
0.8125 -0.0625 0
0.875 -0.0625 0
0.8125 0 0
0.875 0 0
-0.5 0.5 0
-0.4375 0.5 0
-0.5 0.5625 0
-0.4375 0.5625 0
-0.4375 0.5 0
-0.375 0.5 0
-0.4375 0.5625 0
[...]
POINT_DATA 1840
SCALARS U double 1
LOOKUP_TABLE default
-1 -1 -1 -0.765417 -1 -1 -0.764403 -1 -1 -0.764428 -1 -1 -0.763898 -1 -1 -1 -1 -1 -0.797721 -0.775071 -1 -1 -0.775071 -0.761764 -0.797721 -0.775071 -0.613334 -0.57031 -0.775071 -0.761764 -0.57031 -0.544912 -1 -0.797721 -1 -0.775073 -0.797721 -0.613335 -0.775073 -0.570314 -1 -0.775073 -1 -0.761768 -0.775073 -0.570314 -0.761768 -0.544923 -1 -1 -0.752716 -0.75417 -1 -1 -0.75417 -0.760639 -0.752716 -0.75417 -0.52795 -0.530323 -0.75417 -0.760639 -0.530323 -0.542606 -1 -1 -0.760639 -0.774092 -1 -1 -0.774092 -0.796884 -0.760639 -0.774092 -0.542606 -0.568729 -0.774092 -0.796884 -0.568729 -0.611836 -0.61146 -0.796637 -0.567909 -0.773528 -0.796637 -1 -0.773528 -1 -0.567909 -0.773528 -0.540885 -0.75954 -0.773528 -1 -0.75954 -1 -0.363999 -0.540885 -0.345568 -0.527552 -0.540885 -0.75954 -0.527552 -0.751439 -0.75954 -1 -0.751439 -1 -0.751439 -1 -0.749773 -1 -1 -0.752725 -1 -0.75418 -0.752725 -0.527979 -0.75418 -0.530359 -1 -0.75418 -1 -0.76065 -0.75418 -0.530359 -0.76065 -0.542647 -1 -0.76065 -1 -0.774103 -0.76065 -0.542647 -0.774103 -0.568772 -1 -0.774103 -1 -0.796894 -0.774103 -0.568772 -0.796894 -0.611879 -0.611674 -0.568389 -0.796771 -0.773956 -0.568389 -0.542816 -0.773956 -0.760535 -0.796771 -0.773956 -1 -1 -0.773956 -0.760535 -1 -1 -0.542816 -0.529968 -0.760535 -0.753689 -0.529968 -0.525787 -0.753689 -0.751487 -0.760535 -0.753689 -1 -1 -0.753689 -0.751487 -1 -1 -1 -1 -0.882708 -0.83213 -1 -1 -0.83213 -0.797721 -0.882708 -0.83213 -0.765417 -0.678525 -0.83213 -0.797721 -0.678525 -0.613334 -1 -0.882708 -1 -0.83213 -0.882708 -0.765417 -0.83213 -0.678526 -1 -0.83213 -1 -0.797721 -0.83213 -0.678526 -0.797721 -0.613335 -0.765417 -0.678525 -0.678526 -0.554015 -1 -1 -0.796884 -0.831431 -1 -1 -0.831431 -0.882201 -0.796884 -0.831431 -0.611836 -0.677186 -0.831431 -0.882201 -0.677186 -0.764403 -0.677186 -0.764403 -0.552162 -0.677075 -0.764403 -0.882201 -0.677075 -0.831338 -0.882201 -1 -0.831338 -1 -0.677075 -0.831338 -0.61146 -0.796637 -0.831338 -1 -0.796637 -1 -1 -0.796894 -1 -0.831441 -0.796894 -0.611879 -0.831441 -0.677222 -1 -0.831441 -1 -0.882214 -0.831441 -0.677222 -0.882214 -0.764428 -0.677222 -0.552276 -0.764428 -0.677165 -0.764428 -0.677165 -0.882214 -0.831382 -0.677165 -0.611674 -0.831382 -0.796771 -0.882214 -0.831382 -1 -1 -0.831382 -0.796771 -1 -1 -1 -1 -0.761764 -0.754991 -1 -1 -0.754991 -0.752716 -0.761764 -0.754991 -0.544912 -0.532114 -0.754991 -0.752716 -0.532114 -0.52795 -0.749773 -1 -0.751286 -1 -0.751286 -1 -0.757609 -1 -0.538364 -0.757609 -0.566608 -0.772534 -0.757609 -1 -0.772534 -1 -0.566608 -0.772534 -0.610542 -0.796129 -0.772534 -1 -0.796129 -1 -0.525787 -0.529227 -0.751487 -0.75219 -0.751487 -0.75219 -1 -1 -0.75219 -0.759072 -1 -1 -0.551266 -0.676536 -0.676484 -0.763898 -0.610542 -0.796129 -0.676536 -0.831033 -0.796129 -1 -0.831033 -1 -0.676536 -0.831033 -0.763898 -0.881949 -0.831033 -1 -0.881949 -1 -0.676484 -0.763898 -0.829717 -0.881949 -0.795036 -0.829717 -1 -1 -0.829717 -0.881949 -1 -1 -1 -0.761768 -1 -0.754997 -0.761768 -0.544923 -0.754997 -0.532134 -1 -0.754997 -1 -0.752725 -0.754997 -0.532134 -0.752725 -0.527979 -0.530323 -0.542606 -0.347959 -0.365533 -0.530359 -0.348058 -0.542647 -0.365652 -0.353564 -0.281083 -0.281093 -0.201369 -0.281083 -0.238137 -0.201369 -0.153302 -0.281093 -0.201369 -0.238174 -0.15334 -0.201369 -0.153302 -0.15334 -0.102082 -0.238137 -0.216453 -0.153302 -0.12876 -0.216453 -0.20926 -0.12876 -0.120957 -0.153302 -0.12876 -0.102082 -0.0758993 -0.12876 -0.120957 -0.0758993 -0.0675603 -0.238174 -0.15334 -0.216537 -0.128878 -0.15334 -0.102082 -0.128878 -0.0760055 -0.216537 -0.128878 -0.209408 -0.121194 -0.128878 -0.0760055 -0.121194 -0.0678476 -0.759072 -0.772149 -1 -1 -0.772149 -0.795036 -1 -1 -0.102082 -0.0758993 -0.0760055 -0.0488834 -0.0758993 -0.0675603 -0.0488834 -0.0402103 -0.0760055 -0.0488834 -0.0678476 -0.0404358 -0.0488834 -0.0402103 -0.0404358 -0.0315741 -0.20926 -0.214864 -0.120957 -0.127564 -0.214864 -0.235731 -0.127564 -0.151223 -0.120957 -0.127564 -0.0675603 -0.0747778 -0.127564 -0.151223 -0.0747778 -0.0999933 -0.235731 -0.278531 -0.151223 -0.198724 -0.278531 -0.351078 -0.198724 -0.278014 -0.151223 -0.198724 -0.0999933 -0.15043 -0.198724 -0.278014 -0.15043 -0.234451 -0.0675603 -0.0747778 -0.0402103 -0.0475885 -0.0747778 -0.0999933 -0.0475885 -0.0736321 -0.0402103 -0.0475885 -0.0315741 -0.0389249 -0.0475885 -0.0736321 -0.0389249 -0.0651555 -0.0999933 -0.15043 -0.0736321 -0.12558 -0.15043 -0.234451 -0.12558 -0.212776 -0.0736321 -0.12558 -0.0651555 -0.117737 -0.12558 -0.212776 -0.117737 -0.205176 -0.209408 -0.121194 -0.215081 -0.127941 -0.121194 -0.0678476 -0.127941 -0.0752941 -0.215081 -0.127941 -0.236011 -0.151735 -0.127941 -0.0752941 -0.151735 -0.10074 -0.0678476 -0.0404358 -0.0752941 -0.0481344 -0.0404358 -0.0315741 -0.0481344 -0.0393053 -0.0752941 -0.0481344 -0.10074 -0.0745117 -0.0481344 -0.0393053 -0.0745117 -0.0659759 -0.236011 -0.151735 -0.278867 -0.199386 -0.151735 -0.10074 -0.199386 -0.151439 -0.278867 -0.199386 -0.351426 -0.278866 -0.199386 -0.151439 -0.278866 -0.235898 -0.10074 -0.0745117 -0.151439 -0.126893 -0.0745117 -0.0659759 -0.126893 -0.119074 -0.151439 -0.126893 -0.235898 -0.214249 -0.126893 -0.119074 -0.214249 -0.207375 -0.0315741 -0.0389249 -0.0393053 -0.0464969 -0.0389249 -0.0651555 -0.0464969 -0.0724651 -0.0393053 -0.0464969 -0.0659759 -0.0729718 -0.0464969 -0.0724651 -0.0729718 -0.0981191 -0.0651555 -0.117737 -0.0724651 -0.124421 -0.117737 -0.205176 -0.124421 -0.212614 -0.0724651 -0.124421 -0.0981191 -0.148704 -0.124421 -0.212614 -0.148704 -0.232862 -0.0659759 -0.0729718 -0.119074 -0.125637 -0.0729718 -0.0981191 -0.125637 -0.149384 -0.119074 -0.125637 -0.207375 -0.213622 -0.125637 -0.149384 -0.213622 -0.234119 -0.0981191 -0.148704 -0.149384 -0.196906 -0.148704 -0.232862 -0.196906 -0.276831 -0.149384 -0.196906 -0.234119 -0.278484 -0.196906 -0.276831 -0.278484 -0.349626 -0.205176 -0.339652 -0.212614 -0.345911 -0.339652 -0.523455 -0.345911 -0.527095 -0.212614 -0.345911 -0.232862 -0.362486 -0.345911 -0.527095 -0.362486 -0.538364 -0.234119 -0.278484 -0.364006 -0.401103 -0.278484 -0.349626 -0.401103 -0.460174 -0.364006 -0.401103 -0.541037 -0.566856 -0.401103 -0.460174 -0.566856 -0.610147 -0.234451 -0.295314 -0.223614 -0.283151 -0.295314 -0.363999 -0.283151 -0.354783 -0.223614 -0.283151 -0.212776 -0.274852 -0.283151 -0.354783 -0.274852 -0.345568 -0.212776 -0.274852 -0.208976 -0.270882 -0.274852 -0.345568 -0.270882 -0.343387 -0.208976 -0.270882 -0.205176 -0.272414 -0.270882 -0.343387 -0.272414 -0.339652 -0.345568 -0.43656 -0.343387 -0.431035 -0.43656 -0.527552 -0.431035 -0.526034 -0.343387 -0.431035 -0.339652 -0.431553 -0.431035 -0.526034 -0.431553 -0.523455 -0.527552 -0.639495 -0.526034 -0.635199 -0.639495 -0.751439 -0.635199 -0.750606 -0.526034 -0.635199 -0.523455 -0.633584 -0.635199 -0.750606 -0.633584 -0.749773 -0.351426 -0.315146 -0.404137 -0.368045 -0.315146 -0.278866 -0.368045 -0.337481 -0.404137 -0.368045 -0.463369 -0.430403 -0.368045 -0.337481 -0.430403 -0.402874 -0.278866 -0.257382 -0.337481 -0.315025 -0.257382 -0.235898 -0.315025 -0.297638 -0.337481 -0.315025 -0.402874 -0.383004 -0.315025 -0.297638 -0.383004 -0.367249 -0.463369 -0.430403 -0.534121 -0.505922 -0.430403 -0.402874 -0.505922 -0.482017 -0.534121 -0.505922 -0.611674 -0.590031 -0.505922 -0.482017 -0.590031 -0.568389 -0.402874 -0.383004 -0.482017 -0.464607 -0.383004 -0.367249 -0.464607 -0.450938 -0.482017 -0.464607 -0.568389 -0.555602 -0.464607 -0.450938 -0.555602 -0.542816 -0.235898 -0.225074 -0.297638 -0.285712 -0.225074 -0.214249 -0.285712 -0.277371 -0.297638 -0.285712 -0.367249 -0.356495 -0.285712 -0.277371 -0.356495 -0.348977 -0.214249 -0.210812 -0.277371 -0.272679 -0.210812 -0.207375 -0.272679 -0.271147 -0.277371 -0.272679 -0.348977 -0.344951 -0.272679 -0.271147 -0.344951 -0.343278 -0.367249 -0.356495 -0.450938 -0.44161 -0.356495 -0.348977 -0.44161 -0.435169 -0.450938 -0.44161 -0.542816 -0.536392 -0.44161 -0.435169 -0.536392 -0.529968 -0.348977 -0.344951 -0.435169 -0.431573 -0.344951 -0.343278 -0.431573 -0.430247 -0.435169 -0.431573 -0.529968 -0.527878 -0.431573 -0.430247 -0.527878 -0.525787 -0.678525 -0.64593 -0.61627 -0.572752 -0.64593 -0.613334 -0.572752 -0.536026 -0.61627 -0.572752 -0.554015 -0.50696 -0.572752 -0.536026 -0.50696 -0.465392 -0.678526 -0.61627 -0.645931 -0.572753 -0.61627 -0.554015 -0.572753 -0.506961 -0.645931 -0.572753 -0.613335 -0.536028 -0.572753 -0.506961 -0.536028 -0.465394 -0.554015 -0.50696 -0.506961 -0.453656 -0.50696 -0.465392 -0.453656 -0.406245 -0.506961 -0.453656 -0.465394 -0.406247 -0.453656 -0.406245 -0.406247 -0.353564 -0.611836 -0.644511 -0.534189 -0.57103 -0.644511 -0.677186 -0.57103 -0.614674 -0.534189 -0.57103 -0.463348 -0.504997 -0.57103 -0.614674 -0.504997 -0.552162 -0.463348 -0.504997 -0.403954 -0.451448 -0.504997 -0.552162 -0.451448 -0.504872 -0.403954 -0.451448 -0.351078 -0.403771 -0.451448 -0.504872 -0.403771 -0.46305 -0.552162 -0.614618 -0.504872 -0.570833 -0.614618 -0.677075 -0.570833 -0.644267 -0.504872 -0.570833 -0.46305 -0.533825 -0.570833 -0.644267 -0.533825 -0.61146 -0.611879 -0.534267 -0.64455 -0.571105 -0.534267 -0.463482 -0.571105 -0.505128 -0.64455 -0.571105 -0.677222 -0.614749 -0.571105 -0.505128 -0.614749 -0.552276 -0.463482 -0.404179 -0.505128 -0.451661 -0.404179 -0.351426 -0.451661 -0.404137 -0.505128 -0.451661 -0.552276 -0.505071 -0.451661 -0.404137 -0.505071 -0.463369 -0.552276 -0.505071 -0.61472 -0.571014 -0.505071 -0.463369 -0.571014 -0.534121 -0.61472 -0.571014 -0.677165 -0.644419 -0.571014 -0.534121 -0.644419 -0.611674 -0.523455 -0.633584 -0.525275 -0.634024 -0.633584 -0.749773 -0.634024 -0.75053 -0.525275 -0.634024 -0.527095 -0.635802 -0.634024 -0.75053 -0.635802 -0.751286 -0.527095 -0.635802 -0.53273 -0.640103 -0.635802 -0.751286 -0.640103 -0.754447 -0.53273 -0.640103 -0.538364 -0.647987 -0.640103 -0.754447 -0.647987 -0.757609 -0.232862 -0.297674 -0.254847 -0.312623 -0.297674 -0.362486 -0.312623 -0.380893 -0.254847 -0.312623 -0.276831 -0.335286 -0.312623 -0.380893 -0.335286 -0.400663 -0.362486 -0.450425 -0.380893 -0.461915 -0.450425 -0.538364 -0.461915 -0.552486 -0.380893 -0.461915 -0.400663 -0.479888 -0.461915 -0.552486 -0.479888 -0.566608 -0.276831 -0.335286 -0.313229 -0.366373 -0.335286 -0.400663 -0.366373 -0.428857 -0.313229 -0.366373 -0.349626 -0.40267 -0.366373 -0.428857 -0.40267 -0.462075 -0.400663 -0.479888 -0.428857 -0.504278 -0.479888 -0.566608 -0.504278 -0.588575 -0.428857 -0.504278 -0.462075 -0.532809 -0.504278 -0.588575 -0.532809 -0.610542 -0.207375 -0.210499 -0.271147 -0.272483 -0.210499 -0.213622 -0.272483 -0.276759 -0.271147 -0.272483 -0.343278 -0.344876 -0.272483 -0.276759 -0.344876 -0.348353 -0.213622 -0.223871 -0.276759 -0.284801 -0.223871 -0.234119 -0.284801 -0.299063 -0.276759 -0.284801 -0.348353 -0.355889 -0.284801 -0.299063 -0.355889 -0.364006 -0.343278 -0.344876 -0.430247 -0.43125 -0.344876 -0.348353 -0.43125 -0.434691 -0.430247 -0.43125 -0.525787 -0.527507 -0.43125 -0.434691 -0.527507 -0.529227 -0.348353 -0.355889 -0.434691 -0.441541 -0.355889 -0.364006 -0.441541 -0.452522 -0.434691 -0.441541 -0.529227 -0.534984 -0.441541 -0.452522 -0.534984 -0.541037 -0.613334 -0.591822 -0.536026 -0.507945 -0.591822 -0.57031 -0.507945 -0.484141 -0.536026 -0.507945 -0.465392 -0.432543 -0.507945 -0.484141 -0.432543 -0.405121 -0.57031 -0.557611 -0.484141 -0.466831 -0.557611 -0.544912 -0.466831 -0.453214 -0.484141 -0.466831 -0.405121 -0.385323 -0.466831 -0.453214 -0.385323 -0.369624 -0.465392 -0.432543 -0.406245 -0.370237 -0.432543 -0.405121 -0.370237 -0.339735 -0.406245 -0.370237 -0.353564 -0.317323 -0.370237 -0.339735 -0.317323 -0.281083 -0.405121 -0.385323 -0.339735 -0.317331 -0.385323 -0.369624 -0.317331 -0.299981 -0.339735 -0.317331 -0.281083 -0.25961 -0.317331 -0.299981 -0.25961 -0.238137 -0.529227 -0.534984 -0.640709 -0.642532 -0.534984 -0.541037 -0.642532 -0.647386 -0.640709 -0.642532 -0.75219 -0.755631 -0.642532 -0.647386 -0.755631 -0.759072 -0.349626 -0.40267 -0.4049 -0.450126 -0.40267 -0.462075 -0.450126 -0.50393 -0.4049 -0.450126 -0.460174 -0.503726 -0.450126 -0.50393 -0.503726 -0.551266 -0.462075 -0.532809 -0.50393 -0.570115 -0.532809 -0.610542 -0.570115 -0.643539 -0.50393 -0.570115 -0.551266 -0.613901 -0.570115 -0.643539 -0.613901 -0.676536 -0.460174 -0.503726 -0.53516 -0.570195 -0.503726 -0.551266 -0.570195 -0.613875 -0.53516 -0.570195 -0.610147 -0.641719 -0.570195 -0.613875 -0.641719 -0.676484 -0.610147 -0.641719 -0.700534 -0.724714 -0.641719 -0.676484 -0.724714 -0.7531 -0.700534 -0.724714 -0.795036 -0.812377 -0.724714 -0.7531 -0.812377 -0.829717 -0.544912 -0.538513 -0.453214 -0.443907 -0.538513 -0.532114 -0.443907 -0.437509 -0.453214 -0.443907 -0.369624 -0.35888 -0.443907 -0.437509 -0.35888 -0.351316 -0.532114 -0.530032 -0.437509 -0.433812 -0.530032 -0.52795 -0.433812 -0.432267 -0.437509 -0.433812 -0.351316 -0.347135 -0.433812 -0.432267 -0.347135 -0.345398 -0.369624 -0.35888 -0.299981 -0.288056 -0.35888 -0.351316 -0.288056 -0.279657 -0.299981 -0.288056 -0.238137 -0.227295 -0.288056 -0.279657 -0.227295 -0.216453 -0.351316 -0.347135 -0.279657 -0.274851 -0.347135 -0.345398 -0.274851 -0.273073 -0.279657 -0.274851 -0.216453 -0.212857 -0.274851 -0.273073 -0.212857 -0.20926 -0.613335 -0.536028 -0.591825 -0.507949 -0.536028 -0.465394 -0.507949 -0.432548 -0.591825 -0.507949 -0.570314 -0.484148 -0.507949 -0.432548 -0.484148 -0.40513 -0.465394 -0.406247 -0.432548 -0.370243 -0.406247 -0.353564 -0.370243 -0.317328 -0.432548 -0.370243 -0.40513 -0.339746 -0.370243 -0.317328 -0.339746 -0.281093 -0.570314 -0.484148 -0.557618 -0.466842 -0.484148 -0.40513 -0.466842 -0.385338 -0.557618 -0.466842 -0.544923 -0.453231 -0.466842 -0.385338 -0.453231 -0.369648 -0.40513 -0.339746 -0.385338 -0.31735 -0.339746 -0.281093 -0.31735 -0.259633 -0.385338 -0.31735 -0.369648 -0.300012 -0.31735 -0.259633 -0.300012 -0.238174 -0.544923 -0.453231 -0.538528 -0.443931 -0.453231 -0.369648 -0.443931 -0.358914 -0.538528 -0.443931 -0.532134 -0.437541 -0.443931 -0.358914 -0.437541 -0.351362 -0.369648 -0.300012 -0.358914 -0.288102 -0.300012 -0.238174 -0.288102 -0.227355 -0.358914 -0.288102 -0.351362 -0.279722 -0.288102 -0.227355 -0.279722 -0.216537 -0.532134 -0.437541 -0.530056 -0.433852 -0.437541 -0.351362 -0.433852 -0.347194 -0.530056 -0.433852 -0.527979 -0.432316 -0.433852 -0.347194 -0.432316 -0.345471 -0.351362 -0.279722 -0.347194 -0.274936 -0.279722 -0.216537 -0.274936 -0.212973 -0.347194 -0.274936 -0.345471 -0.273181 -0.274936 -0.212973 -0.273181 -0.209408 -0.52795 -0.529136 -0.432267 -0.43331 -0.529136 -0.530323 -0.43331 -0.439141 -0.432267 -0.43331 -0.345398 -0.346128 -0.43331 -0.439141 -0.346128 -0.347959 -0.345398 -0.346128 -0.273073 -0.27371 -0.346128 -0.347959 -0.27371 -0.277222 -0.273073 -0.27371 -0.20926 -0.212062 -0.27371 -0.277222 -0.212062 -0.214864 -0.347959 -0.356746 -0.277222 -0.284841 -0.356746 -0.365533 -0.284841 -0.296789 -0.277222 -0.284841 -0.214864 -0.225297 -0.284841 -0.296789 -0.225297 -0.235731 -0.542606 -0.555667 -0.45407 -0.465036 -0.555667 -0.568729 -0.465036 -0.482155 -0.45407 -0.465036 -0.365533 -0.382825 -0.465036 -0.482155 -0.382825 -0.402957 -0.568729 -0.590282 -0.482155 -0.506123 -0.590282 -0.611836 -0.506123 -0.534189 -0.482155 -0.506123 -0.402957 -0.430404 -0.506123 -0.534189 -0.430404 -0.463348 -0.365533 -0.382825 -0.296789 -0.314616 -0.382825 -0.402957 -0.314616 -0.337328 -0.296789 -0.314616 -0.235731 -0.257131 -0.314616 -0.337328 -0.257131 -0.278531 -0.402957 -0.430404 -0.337328 -0.367899 -0.430404 -0.463348 -0.367899 -0.403954 -0.337328 -0.367899 -0.278531 -0.314804 -0.367899 -0.403954 -0.314804 -0.351078 -0.351078 -0.403771 -0.314546 -0.367483 -0.403771 -0.46305 -0.367483 -0.429856 -0.314546 -0.367483 -0.278014 -0.336639 -0.367483 -0.429856 -0.336639 -0.402154 -0.46305 -0.533825 -0.429856 -0.505524 -0.533825 -0.61146 -0.505524 -0.589684 -0.429856 -0.505524 -0.402154 -0.481272 -0.505524 -0.589684 -0.481272 -0.567909 -0.278014 -0.336639 -0.256232 -0.313557 -0.336639 -0.402154 -0.313557 -0.381611 -0.256232 -0.313557 -0.234451 -0.295314 -0.313557 -0.381611 -0.295314 -0.363999 -0.402154 -0.481272 -0.381611 -0.463818 -0.481272 -0.567909 -0.463818 -0.554397 -0.381611 -0.463818 -0.363999 -0.452442 -0.463818 -0.554397 -0.452442 -0.540885 -0.527979 -0.432316 -0.529169 -0.433367 -0.432316 -0.345471 -0.433367 -0.346216 -0.529169 -0.433367 -0.530359 -0.439209 -0.433367 -0.346216 -0.439209 -0.348058 -0.345471 -0.273181 -0.346216 -0.27384 -0.273181 -0.209408 -0.27384 -0.212245 -0.346216 -0.27384 -0.348058 -0.277374 -0.27384 -0.212245 -0.277374 -0.215081 -0.348058 -0.277374 -0.356855 -0.285015 -0.277374 -0.215081 -0.285015 -0.225546 -0.356855 -0.285015 -0.365652 -0.29698 -0.285015 -0.225546 -0.29698 -0.236011 -0.542647 -0.454149 -0.55571 -0.465114 -0.454149 -0.365652 -0.465114 -0.382954 -0.55571 -0.465114 -0.568772 -0.482235 -0.465114 -0.382954 -0.482235 -0.403091 -0.365652 -0.29698 -0.382954 -0.314823 -0.29698 -0.236011 -0.314823 -0.257439 -0.382954 -0.314823 -0.403091 -0.337545 -0.314823 -0.257439 -0.337545 -0.278867 -0.568772 -0.482235 -0.590325 -0.506203 -0.482235 -0.403091 -0.506203 -0.43054 -0.590325 -0.506203 -0.611879 -0.534267 -0.506203 -0.43054 -0.534267 -0.463482 -0.403091 -0.337545 -0.43054 -0.368122 -0.337545 -0.278867 -0.368122 -0.315147 -0.43054 -0.368122 -0.463482 -0.404179 -0.368122 -0.315147 -0.404179 -0.351426 -0.541037 -0.553946 -0.647386 -0.655859 -0.553946 -0.566856 -0.655859 -0.666807 -0.647386 -0.655859 -0.759072 -0.76561 -0.655859 -0.666807 -0.76561 -0.772149 -0.566856 -0.588501 -0.666807 -0.682304 -0.588501 -0.610147 -0.682304 -0.700534 -0.666807 -0.682304 -0.772149 -0.783593 -0.682304 -0.700534 -0.783593 -0.795036 
