# vtk DataFile Version 3.0
#This file was generated by the deal.II library on 2015/4/22 at 22:35:31
ASCII
DATASET UNSTRUCTURED_GRID

POINTS 6700 double
0 0 0
0.125 0 0
0 0.125 0
0.125 0.125 0
0.125 0 0
0.25 0 0
0.125 0.125 0
0.25 0.125 0
0 0.125 0
0.125 0.125 0
0 0.25 0
0.125 0.25 0
0.125 0.125 0
0.25 0.125 0
0.125 0.25 0
0.25 0.25 0
0.25 0.25 0
0.375 0.25 0
0.25 0.375 0
0.375 0.375 0
0.75 0.125 0
0.8125 0.125 0
0.75 0.1875 0
0.8125 0.1875 0
0.75 0.1875 0
0.8125 0.1875 0
0.75 0.25 0
0.8125 0.25 0
0.1875 0.75 0
0.25 0.75 0
0.1875 0.8125 0
0.25 0.8125 0
0.6875 0.1875 0
0.75 0.1875 0
0.6875 0.25 0
0.75 0.25 0
0.1875 0.6875 0
0.25 0.6875 0
0.1875 0.75 0
0.25 0.75 0
0.5 0 0
0.5625 0 0
0.5 0.0625 0
0.5625 0.0625 0
0.5625 0 0
0.625 0 0
0.5625 0.0625 0
0.625 0.0625 0
0.5 0.0625 0
0.5625 0.0625 0
0.5 0.125 0
0.5625 0.125 0
0.5625 0.0625 0
0.625 0.0625 0
0.5625 0.125 0
0.625 0.125 0
0 0.5 0
0.0625 0.5 0
0 0.5625 0
0.0625 0.5625 0
0.0625 0.5 0
0.125 0.5 0
0.0625 0.5625 0
0.125 0.5625 0
0 0.5625 0
0.0625 0.5625 0
0 0.625 0
0.0625 0.625 0
0.0625 0.5625 0
0.125 0.5625 0
0.0625 0.625 0
0.125 0.625 0
0.625 0.25 0
0.6875 0.25 0
0.625 0.3125 0
0.6875 0.3125 0
0.6875 0.25 0
0.75 0.25 0
0.6875 0.3125 0
0.75 0.3125 0
0.6875 0.3125 0
0.75 0.3125 0
0.6875 0.375 0
0.75 0.375 0
0.25 0.625 0
0.3125 0.625 0
0.25 0.6875 0
0.3125 0.6875 0
0.25 0.6875 0
0.3125 0.6875 0
0.25 0.75 0
0.3125 0.75 0
0.3125 0.6875 0
0.375 0.6875 0
0.3125 0.75 0
0.375 0.75 0
0.25 0 0
0.3125 0 0
0.25 0.0625 0
0.3125 0.0625 0
0.25 0.0625 0
0.3125 0.0625 0
0.25 0.125 0
0.3125 0.125 0
0 0.25 0
0.0625 0.25 0
0 0.3125 0
0.0625 0.3125 0
0.0625 0.25 0
0.125 0.25 0
0.0625 0.3125 0
0.125 0.3125 0
0.5 0.25 0
0.5625 0.25 0
0.5 0.3125 0
0.5625 0.3125 0
0.5625 0.25 0
0.625 0.25 0
0.5625 0.3125 0
0.625 0.3125 0
0.5 0.3125 0
0.5625 0.3125 0
0.5 0.375 0
0.5625 0.375 0
0.5625 0.3125 0
0.625 0.3125 0
0.5625 0.375 0
0.625 0.375 0
0.5 0.375 0
0.5625 0.375 0
0.5 0.4375 0
0.5625 0.4375 0
0.5625 0.375 0
0.625 0.375 0
0.5625 0.4375 0
0.625 0.4375 0
0.5 0.4375 0
0.5625 0.4375 0
0.5 0.5 0
0.5625 0.5 0
0.5625 0.4375 0
0.625 0.4375 0
0.5625 0.5 0
0.625 0.5 0
0.25 0.5 0
0.3125 0.5 0
0.25 0.5625 0
0.3125 0.5625 0
0.3125 0.5 0
0.375 0.5 0
0.3125 0.5625 0
0.375 0.5625 0
0.25 0.5625 0
0.3125 0.5625 0
0.25 0.625 0
0.3125 0.625 0
0.3125 0.5625 0
0.375 0.5625 0
0.3125 0.625 0
0.375 0.625 0
0.375 0.5 0
0.4375 0.5 0
0.375 0.5625 0
0.4375 0.5625 0
0.4375 0.5 0
0.5 0.5 0
0.4375 0.5625 0
0.5 0.5625 0
0.375 0.5625 0
0.4375 0.5625 0
0.375 0.625 0
0.4375 0.625 0
0.4375 0.5625 0
0.5 0.5625 0
0.4375 0.625 0
0.5 0.625 0
0.5 0.5 0
0.5625 0.5 0
0.5 0.5625 0
0.5625 0.5625 0
0.5625 0.5 0
0.625 0.5 0
0.5625 0.5625 0
0.625 0.5625 0
0.5 0.5625 0
0.5625 0.5625 0
0.5 0.625 0
0.5625 0.625 0
0.25 0.125 0
0.3125 0.125 0
0.25 0.1875 0
0.3125 0.1875 0
0.3125 0.125 0
0.375 0.125 0
0.3125 0.1875 0
0.375 0.1875 0
0.25 0.1875 0
0.3125 0.1875 0
0.25 0.25 0
0.3125 0.25 0
0.3125 0.1875 0
0.375 0.1875 0
0.3125 0.25 0
0.375 0.25 0
0.375 0.25 0
0.4375 0.25 0
0.375 0.3125 0
0.4375 0.3125 0
0.4375 0.25 0
0.5 0.25 0
0.4375 0.3125 0
0.5 0.3125 0
0.375 0.3125 0
0.4375 0.3125 0
0.375 0.375 0
0.4375 0.375 0
0.4375 0.3125 0
0.5 0.3125 0
0.4375 0.375 0
0.5 0.375 0
0.25 0.375 0
0.3125 0.375 0
0.25 0.4375 0
0.3125 0.4375 0
0.3125 0.375 0
0.375 0.375 0
0.3125 0.4375 0
0.375 0.4375 0
0.25 0.4375 0
0.3125 0.4375 0
0.25 0.5 0
0.3125 0.5 0
0.3125 0.4375 0
0.375 0.4375 0
0.3125 0.5 0
0.375 0.5 0
0.375 0.375 0
0.4375 0.375 0
0.375 0.4375 0
0.4375 0.4375 0
0.375 0.125 0
0.4375 0.125 0
0.375 0.1875 0
0.4375 0.1875 0
0.4375 0.125 0
0.5 0.125 0
0.4375 0.1875 0
0.5 0.1875 0
0.375 0.1875 0
0.4375 0.1875 0
0.375 0.25 0
0.4375 0.25 0
0.4375 0.1875 0
0.5 0.1875 0
0.4375 0.25 0
0.5 0.25 0
0.125 0.25 0
0.1875 0.25 0
0.125 0.3125 0
0.1875 0.3125 0
0.1875 0.25 0
0.25 0.25 0
0.1875 0.3125 0
0.25 0.3125 0
0.125 0.3125 0
0.1875 0.3125 0
0.125 0.375 0
0.1875 0.375 0
0.1875 0.3125 0
0.25 0.3125 0
0.1875 0.375 0
0.25 0.375 0
0.125 0.375 0
0.1875 0.375 0
0.125 0.4375 0
0.1875 0.4375 0
0.1875 0.375 0
0.25 0.375 0
0.1875 0.4375 0
0.25 0.4375 0
0.125 0.4375 0
0.1875 0.4375 0
0.125 0.5 0
0.1875 0.5 0
0.1875 0.4375 0
0.25 0.4375 0
0.1875 0.5 0
0.25 0.5 0
0.875 0.3125 0
0.90625 0.3125 0
0.875 0.34375 0
0.90625 0.34375 0
0.90625 0.3125 0
0.9375 0.3125 0
0.90625 0.34375 0
0.9375 0.34375 0
0.875 0.34375 0
0.90625 0.34375 0
0.875 0.375 0
0.90625 0.375 0
0.90625 0.34375 0
0.9375 0.34375 0
0.90625 0.375 0
0.9375 0.375 0
0.875 0.375 0
0.90625 0.375 0
0.875 0.40625 0
0.90625 0.40625 0
0.90625 0.375 0
0.9375 0.375 0
0.90625 0.40625 0
0.9375 0.40625 0
0.875 0.40625 0
0.90625 0.40625 0
0.875 0.4375 0
0.90625 0.4375 0
0.90625 0.40625 0
0.9375 0.40625 0
0.90625 0.4375 0
0.9375 0.4375 0
0.875 0.4375 0
0.90625 0.4375 0
0.875 0.46875 0
0.90625 0.46875 0
0.90625 0.4375 0
0.9375 0.4375 0
0.90625 0.46875 0
0.9375 0.46875 0
0.875 0.46875 0
0.90625 0.46875 0
0.875 0.5 0
0.90625 0.5 0
0.90625 0.46875 0
0.9375 0.46875 0
0.90625 0.5 0
0.9375 0.5 0
0.3125 0.875 0
0.34375 0.875 0
0.3125 0.90625 0
0.34375 0.90625 0
0.34375 0.875 0
0.375 0.875 0
0.34375 0.90625 0
0.375 0.90625 0
0.3125 0.90625 0
0.34375 0.90625 0
0.3125 0.9375 0
0.34375 0.9375 0
0.34375 0.90625 0
0.375 0.90625 0
0.34375 0.9375 0
0.375 0.9375 0
0.375 0.875 0
0.40625 0.875 0
0.375 0.90625 0
0.40625 0.90625 0
0.40625 0.875 0
0.4375 0.875 0
0.40625 0.90625 0
0.4375 0.90625 0
0.375 0.90625 0
0.40625 0.90625 0
0.375 0.9375 0
0.40625 0.9375 0
0.40625 0.90625 0
0.4375 0.90625 0
0.40625 0.9375 0
0.4375 0.9375 0
0.4375 0.875 0
0.46875 0.875 0
0.4375 0.90625 0
0.46875 0.90625 0
0.46875 0.875 0
0.5 0.875 0
0.46875 0.90625 0
0.5 0.90625 0
0.4375 0.90625 0
0.46875 0.90625 0
0.4375 0.9375 0
0.46875 0.9375 0
0.46875 0.90625 0
0.5 0.90625 0
0.46875 0.9375 0
0.5 0.9375 0
0.875 0.5 0
0.90625 0.5 0
0.875 0.53125 0
0.90625 0.53125 0
0.90625 0.5 0
0.9375 0.5 0
0.90625 0.53125 0
0.9375 0.53125 0
0.9375 0.5625 0
0.96875 0.5625 0
0.9375 0.59375 0
0.96875 0.59375 0
0.8125 0.03125 0
0.84375 0.03125 0
0.8125 0.0625 0
0.84375 0.0625 0
0.75 0.0625 0
0.78125 0.0625 0
0.75 0.09375 0
0.78125 0.09375 0
0.75 0.09375 0
0.78125 0.09375 0
0.75 0.125 0
0.78125 0.125 0
0.78125 0.09375 0
0.8125 0.09375 0
0.78125 0.125 0
0.8125 0.125 0
0.5 0.875 0
0.53125 0.875 0
0.5 0.90625 0
0.53125 0.90625 0
0.5 0.90625 0
0.53125 0.90625 0
0.5 0.9375 0
0.53125 0.9375 0
0.5625 0.9375 0
0.59375 0.9375 0
0.5625 0.96875 0
0.59375 0.96875 0
0.8125 0.09375 0
0.84375 0.09375 0
0.8125 0.125 0
0.84375 0.125 0
0.84375 0.09375 0
0.875 0.09375 0
0.84375 0.125 0
0.875 0.125 0
0.875 0.25 0
0.90625 0.25 0
0.875 0.28125 0
0.90625 0.28125 0
0.90625 0.25 0
0.9375 0.25 0
0.90625 0.28125 0
0.9375 0.28125 0
0.875 0.28125 0
0.90625 0.28125 0
0.875 0.3125 0
0.90625 0.3125 0
0.90625 0.28125 0
0.9375 0.28125 0
0.90625 0.3125 0
0.9375 0.3125 0
0.875 0.0625 0
0.90625 0.0625 0
0.875 0.09375 0
0.90625 0.09375 0
0.90625 0.0625 0
0.9375 0.0625 0
0.90625 0.09375 0
0.9375 0.09375 0
0.875 0.09375 0
0.90625 0.09375 0
0.875 0.125 0
0.90625 0.125 0
0.90625 0.09375 0
0.9375 0.09375 0
0.90625 0.125 0
0.9375 0.125 0
0.25 0.875 0
0.28125 0.875 0
0.25 0.90625 0
0.28125 0.90625 0
0.28125 0.875 0
0.3125 0.875 0
0.28125 0.90625 0
0.3125 0.90625 0
0.25 0.90625 0
0.28125 0.90625 0
0.25 0.9375 0
0.28125 0.9375 0
0.28125 0.90625 0
0.3125 0.90625 0
0.28125 0.9375 0
0.3125 0.9375 0
0.875 0.125 0
0.90625 0.125 0
0.875 0.15625 0
0.90625 0.15625 0
0.90625 0.125 0
0.9375 0.125 0
0.90625 0.15625 0
0.9375 0.15625 0
0.875 0.15625 0
0.90625 0.15625 0
0.875 0.1875 0
0.90625 0.1875 0
0.90625 0.15625 0
0.9375 0.15625 0
0.90625 0.1875 0
0.9375 0.1875 0
0.875 0.1875 0
0.90625 0.1875 0
0.875 0.21875 0
0.90625 0.21875 0
0.90625 0.1875 0
0.9375 0.1875 0
0.90625 0.21875 0
0.9375 0.21875 0
0.875 0.21875 0
0.90625 0.21875 0
0.875 0.25 0
0.90625 0.25 0
0.90625 0.21875 0
0.9375 0.21875 0
0.90625 0.25 0
0.9375 0.25 0
0.09375 0.8125 0
0.125 0.8125 0
0.09375 0.84375 0
0.125 0.84375 0
0.0625 0.84375 0
0.09375 0.84375 0
0.0625 0.875 0
0.09375 0.875 0
0.09375 0.84375 0
0.125 0.84375 0
0.09375 0.875 0
0.125 0.875 0
0.0625 0.875 0
0.09375 0.875 0
0.0625 0.90625 0
0.09375 0.90625 0
0.09375 0.875 0
0.125 0.875 0
0.09375 0.90625 0
0.125 0.90625 0
0.0625 0.90625 0
0.09375 0.90625 0
0.0625 0.9375 0
0.09375 0.9375 0
0.09375 0.90625 0
0.125 0.90625 0
0.09375 0.9375 0
0.125 0.9375 0
0.125 0.875 0
0.15625 0.875 0
0.125 0.90625 0
0.15625 0.90625 0
0.15625 0.875 0
0.1875 0.875 0
0.15625 0.90625 0
0.1875 0.90625 0
0.125 0.90625 0
0.15625 0.90625 0
0.125 0.9375 0
0.15625 0.9375 0
0.15625 0.90625 0
0.1875 0.90625 0
0.15625 0.9375 0
0.1875 0.9375 0
0.1875 0.875 0
0.21875 0.875 0
0.1875 0.90625 0
0.21875 0.90625 0
0.21875 0.875 0
0.25 0.875 0
0.21875 0.90625 0
0.25 0.90625 0
0.1875 0.90625 0
0.21875 0.90625 0
0.1875 0.9375 0
0.21875 0.9375 0
0.21875 0.90625 0
0.25 0.90625 0
0.21875 0.9375 0
0.25 0.9375 0
0.75 0 0
0.78125 0 0
0.75 0.03125 0
0.78125 0.03125 0
0.8125 0.625 0
0.84375 0.625 0
0.8125 0.65625 0
0.84375 0.65625 0
0.8125 0.6875 0
0.84375 0.6875 0
0.8125 0.71875 0
0.84375 0.71875 0
0.625 0.8125 0
0.65625 0.8125 0
0.625 0.84375 0
0.65625 0.84375 0
0 0.75 0
0.03125 0.75 0
0 0.78125 0
0.03125 0.78125 0
0.03125 0.75 0
0.0625 0.75 0
0.03125 0.78125 0
0.0625 0.78125 0
0.0625 0.75 0
0.09375 0.75 0
0.0625 0.78125 0
0.09375 0.78125 0
0.625 0 0
0.65625 0 0
0.625 0.03125 0
0.65625 0.03125 0
0.65625 0 0
0.6875 0 0
0.65625 0.03125 0
0.6875 0.03125 0
0.625 0.03125 0
0.65625 0.03125 0
0.625 0.0625 0
0.65625 0.0625 0
0.65625 0.03125 0
0.6875 0.03125 0
0.65625 0.0625 0
0.6875 0.0625 0
0.6875 0 0
0.71875 0 0
0.6875 0.03125 0
0.71875 0.03125 0
0.71875 0 0
0.75 0 0
0.71875 0.03125 0
0.75 0.03125 0
0.625 0.0625 0
0.65625 0.0625 0
0.625 0.09375 0
0.65625 0.09375 0
0.625 0.09375 0
0.65625 0.09375 0
0.625 0.125 0
0.65625 0.125 0
0.65625 0.09375 0
0.6875 0.09375 0
0.65625 0.125 0
0.6875 0.125 0
0.6875 0.09375 0
0.71875 0.09375 0
0.6875 0.125 0
0.71875 0.125 0
0.75 0.25 0
0.78125 0.25 0
0.75 0.28125 0
0.78125 0.28125 0
0.78125 0.25 0
0.8125 0.25 0
0.78125 0.28125 0
0.8125 0.28125 0
0.75 0.28125 0
[...]
POINT_DATA 6700
SCALARS V double 1
LOOKUP_TABLE default
0 0 0 0.00126017 0 0 0.00126017 0.00350133 0 0.00126017 0 0.00350252 0.00126017 0.00350133 0.00350252 0.00550746 0.00550746 0.0105665 0.0105716 0.0113049 0.149271 0.191203 0.139881 0.188342 0.139881 0.188342 0.135908 0.189183 0.139903 0.135945 0.188306 0.189223 0.100244 0.139881 0.0926598 0.135908 0.100275 0.0926939 0.139903 0.135945 0.0496016 0.0806026 0.0442414 0.0693091 0.0806026 0.111604 0.0693091 0.0953337 0.0442414 0.0693091 0.0371451 0.0576456 0.0693091 0.0953337 0.0576456 0.0830286 0.0496016 0.04425 0.0806026 0.0693197 0.04425 0.03716 0.0693197 0.0576662 0.0806026 0.0693197 0.111604 0.0953523 0.0693197 0.0576662 0.0953523 0.083056 0.0610415 0.0926598 0.055773 0.0883368 0.0926598 0.135908 0.0883368 0.1343 0.0883368 0.1343 0.0869197 0.136189 0.0610726 0.0557969 0.0926939 0.0883657 0.0926939 0.0883657 0.135945 0.13433 0.0883657 0.0869404 0.13433 0.136211 0 0 0.00175067 0.00413595 0.00175067 0.00413595 0.00350133 0.00787921 0 0.00175126 0 0.00413761 0.00175126 0.00350252 0.00413761 0.0078825 0.0250237 0.0398527 0.0218411 0.0354979 0.0398527 0.0610415 0.0354979 0.055773 0.0218411 0.0354979 0.0212217 0.033681 0.0354979 0.055773 0.033681 0.0541249 0.0212217 0.033681 0.0216169 0.0355138 0.033681 0.0541249 0.0355138 0.0563598 0.0216169 0.0355138 0.0290587 0.0420904 0.0355138 0.0563598 0.0420904 0.0638084 0.0250406 0.0218547 0.0398756 0.0355168 0.0218547 0.0212304 0.0355168 0.0336943 0.0398756 0.0355168 0.0610726 0.0557969 0.0355168 0.0336943 0.0557969 0.0541431 0.0212304 0.0216206 0.0336943 0.0355215 0.0216206 0.0290587 0.0355215 0.0420938 0.0336943 0.0355215 0.0541431 0.0563706 0.0355215 0.0420938 0.0563706 0.0638141 0.0290587 0.0420904 0.0420938 0.056223 0.0420904 0.0638084 0.056223 0.0784449 0.0420938 0.056223 0.0638141 0.0784468 0.00350133 0.00787921 0.00450439 0.00795809 0.00787921 0.0122571 0.00795809 0.0114118 0.00450439 0.00795809 0.00550746 0.00803698 0.00795809 0.0114118 0.00803698 0.0105665 0.0105665 0.0177951 0.0103707 0.013409 0.0177951 0.0250237 0.013409 0.0218411 0.0103707 0.013409 0.0113049 0.013662 0.013409 0.0218411 0.013662 0.0212217 0.0105716 0.0103745 0.0178061 0.0134166 0.0103745 0.0113049 0.0134166 0.0136659 0.0178061 0.0134166 0.0250406 0.0218547 0.0134166 0.0136659 0.0218547 0.0212304 0.0113049 0.013662 0.0136659 0.0147842 0.0122571 0.0247011 0.0114118 0.0212481 0.0247011 0.0371451 0.0212481 0.0310844 0.0114118 0.0212481 0.0105665 0.0177951 0.0212481 0.0310844 0.0177951 0.0250237 0.00350252 0.00450499 0.0078825 0.00796102 0.00450499 0.00550746 0.00796102 0.00803955 0.0078825 0.00796102 0.0122625 0.0114171 0.00796102 0.00803955 0.0114171 0.0105716 0.0122625 0.0114171 0.0247112 0.0212587 0.0114171 0.0105716 0.0212587 0.0178061 0.0247112 0.0212587 0.03716 0.0311003 0.0212587 0.0178061 0.0311003 0.0250406 0.269852 0.313397 0.277152 0.322608 0.313397 0.358121 0.322608 0.366575 0.277152 0.322608 0.284282 0.332667 0.322608 0.366575 0.332667 0.378811 0.284282 0.332667 0.292367 0.342049 0.332667 0.378811 0.342049 0.390227 0.292367 0.342049 0.301163 0.352177 0.342049 0.390227 0.352177 0.402294 0.301163 0.352177 0.310638 0.363225 0.352177 0.402294 0.363225 0.415013 0.310638 0.363225 0.320931 0.374741 0.363225 0.415013 0.374741 0.427601 0.269875 0.277171 0.313414 0.322623 0.277171 0.284299 0.322623 0.33268 0.313414 0.322623 0.358133 0.366586 0.322623 0.33268 0.366586 0.378821 0.284299 0.292382 0.33268 0.342061 0.292382 0.301178 0.342061 0.352189 0.33268 0.342061 0.378821 0.390235 0.342061 0.352189 0.390235 0.402303 0.301178 0.310654 0.352189 0.363242 0.310654 0.320955 0.363242 0.374766 0.352189 0.363242 0.402303 0.415025 0.363242 0.374766 0.415025 0.427621 0.320931 0.374741 0.332294 0.386457 0.374741 0.427601 0.386457 0.440346 0.455244 0.516552 0.469322 0.531152 0.196023 0.223502 0.20274 0.216111 0.163201 0.181915 0.152124 0.173113 0.152124 0.173113 0.149271 0.170631 0.173113 0.194087 0.170631 0.191203 0.320955 0.332329 0.374766 0.386494 0.374766 0.386494 0.427621 0.440377 0.455237 0.46975 0.516549 0.531487 0.194087 0.217555 0.191203 0.218901 0.217555 0.242561 0.218901 0.242688 0.258233 0.297248 0.263594 0.305522 0.297248 0.338445 0.305522 0.349223 0.263594 0.305522 0.269852 0.313397 0.305522 0.349223 0.313397 0.358121 0.239771 0.260252 0.242561 0.265489 0.260252 0.283536 0.265489 0.291946 0.242561 0.265489 0.242688 0.271726 0.265489 0.291946 0.271726 0.301241 0.258253 0.263617 0.297269 0.305541 0.263617 0.269875 0.305541 0.313414 0.297269 0.305541 0.338459 0.349236 0.305541 0.313414 0.349236 0.358133 0.242688 0.271726 0.247474 0.277051 0.271726 0.301241 0.277051 0.310044 0.247474 0.277051 0.248922 0.283602 0.277051 0.310044 0.283602 0.319161 0.248922 0.283602 0.254088 0.290117 0.283602 0.319161 0.290117 0.328687 0.254088 0.290117 0.258233 0.297248 0.290117 0.328687 0.297248 0.338445 0.193566 0.191701 0.21776 0.218919 0.216166 0.21776 0.239757 0.242527 0.21776 0.218919 0.242527 0.242592 0.239757 0.242527 0.260266 0.265509 0.242527 0.242592 0.265509 0.271773 0.260266 0.265509 0.283548 0.291961 0.265509 0.271773 0.291961 0.301255 0.242592 0.247478 0.271773 0.277087 0.247478 0.248972 0.277087 0.283622 0.271773 0.277087 0.301255 0.310059 0.277087 0.283622 0.310059 0.319175 0.248972 0.254122 0.283622 0.290136 0.254122 0.258253 0.290136 0.297269 0.283622 0.290136 0.319175 0.328701 0.290136 0.297269 0.328701 0.338459 0.173606 0.189106 0.165228 0.182018 0.276838 0.329045 0.294797 0.339642 0.315957 0.361016 0.340527 0.38287 0.276881 0.294813 0.32914 0.339852 0.173606 0.165068 0.189106 0.182051 0.165068 0.163479 0.182051 0.182588 0.163479 0.152635 0.182588 0.171692 0.111604 0.127104 0.103469 0.118258 0.127104 0.142605 0.118258 0.133292 0.103469 0.118258 0.0953337 0.112723 0.118258 0.133292 0.112723 0.130202 0.142605 0.158105 0.133292 0.148204 0.158105 0.173606 0.148204 0.165228 0.0953337 0.112723 0.0891811 0.102112 0.0891811 0.102112 0.0830286 0.0975814 0.102112 0.117752 0.0975814 0.112134 0.117752 0.134189 0.112134 0.130703 0.135908 0.161927 0.133901 0.16198 0.161927 0.189183 0.16198 0.190885 0.133901 0.16198 0.1343 0.162878 0.111604 0.103478 0.127104 0.118264 0.103478 0.0953523 0.118264 0.112732 0.127104 0.118264 0.142605 0.133311 0.118264 0.112732 0.133311 0.130236 0.0953523 0.0892041 0.112732 0.102126 0.0892041 0.083056 0.102126 0.0976038 0.102126 0.0976038 0.117784 0.112152 0.142605 0.133311 0.158105 0.148243 0.158105 0.148243 0.173606 0.165068 0.117784 0.112152 0.134174 0.130734 0.189183 0.225642 0.190885 0.22892 0.225642 0.258233 0.22892 0.263594 0.22892 0.263594 0.232958 0.269852 0.1343 0.162878 0.134184 0.164877 0.162878 0.193244 0.164877 0.197017 0.134184 0.164877 0.136189 0.167713 0.164877 0.197017 0.167713 0.201041 0.193244 0.232958 0.197017 0.238932 0.232958 0.269852 0.238932 0.277152 0.197017 0.238932 0.201041 0.244614 0.238932 0.277152 0.244614 0.284282 0.136189 0.167713 0.139048 0.171668 0.167713 0.201041 0.171668 0.206074 0.139048 0.171668 0.143323 0.176607 0.171668 0.206074 0.176607 0.212056 0.143323 0.176607 0.148359 0.18335 0.176607 0.212056 0.18335 0.219697 0.148359 0.18335 0.155014 0.190781 0.18335 0.219697 0.190781 0.227984 0.135945 0.133935 0.161963 0.162012 0.133935 0.13433 0.162012 0.162907 0.161963 0.162012 0.189223 0.190914 0.13433 0.134209 0.162907 0.164903 0.134209 0.136211 0.164903 0.167735 0.162907 0.164903 0.193271 0.197042 0.164903 0.167735 0.197042 0.201062 0.189223 0.190914 0.225675 0.228947 0.225675 0.228947 0.258253 0.263617 0.228947 0.232983 0.263617 0.269875 0.193271 0.197042 0.232983 0.238954 0.197042 0.201062 0.238954 0.244633 0.232983 0.238954 0.269875 0.277171 0.238954 0.244633 0.277171 0.284299 0.136211 0.139066 0.167735 0.171686 0.139066 0.143338 0.171686 0.176622 0.167735 0.171686 0.201062 0.206092 0.171686 0.176622 0.206092 0.212072 0.143338 0.148371 0.176622 0.183363 0.148371 0.155024 0.183363 0.190794 0.176622 0.183363 0.212072 0.219712 0.183363 0.190794 0.219712 0.228002 0.0830286 0.0975814 0.0764444 0.0913167 0.0975814 0.112134 0.0913167 0.106189 0.0764444 0.0913167 0.0698603 0.085052 0.0913167 0.106189 0.085052 0.100244 0.191203 0.218901 0.191172 0.221093 0.218901 0.242688 0.221093 0.247474 0.191172 0.221093 0.188342 0.220576 0.221093 0.247474 0.220576 0.248922 0.112134 0.130703 0.106189 0.125382 0.130703 0.149271 0.125382 0.144576 0.106189 0.125382 0.100244 0.120062 0.125382 0.144576 0.120062 0.139881 0.188342 0.220576 0.189018 0.223455 0.220576 0.248922 0.223455 0.254088 0.189018 0.223455 0.189183 0.225642 0.223455 0.254088 0.225642 0.258233 0.155014 0.190781 0.163129 0.199668 0.190781 0.227984 0.199668 0.237552 0.163129 0.199668 0.173235 0.210315 0.199668 0.237552 0.210315 0.248728 0.173235 0.210315 0.185401 0.223121 0.210315 0.248728 0.223121 0.261775 0.185401 0.223121 0.200527 0.237932 0.223121 0.261775 0.237932 0.276838 0.200527 0.237932 0.218044 0.256232 0.237932 0.276838 0.256232 0.294797 0.218044 0.256232 0.240728 0.277294 0.256232 0.294797 0.277294 0.315957 0.240728 0.277294 0.264339 0.30293 0.277294 0.315957 0.30293 0.340527 0.264339 0.30293 0.294855 0.330583 0.30293 0.340527 0.330583 0.366871 0.155024 0.163138 0.190794 0.199681 0.163138 0.173244 0.199681 0.210329 0.190794 0.199681 0.228002 0.23757 0.199681 0.210329 0.23757 0.248749 0.173244 0.185407 0.210329 0.223132 0.185407 0.200532 0.223132 0.237939 0.210329 0.223132 0.248749 0.261805 0.223132 0.237939 0.261805 0.276881 0.200532 0.218044 0.237939 0.256248 0.218044 0.240728 0.256248 0.277314 0.237939 0.256248 0.276881 0.294813 0.256248 0.277314 0.294813 0.316037 0.240728 0.264342 0.277314 0.302953 0.264342 0.294855 0.302953 0.330601 0.277314 0.302953 0.316037 0.340606 0.302953 0.330601 0.340606 0.366867 0.149315 0.144609 0.171183 0.168552 0.144609 0.139903 0.168552 0.164088 0.171183 0.168552 0.191701 0.191144 0.168552 0.164088 0.191144 0.188306 0.0698603 0.085052 0.0654509 0.0809513 0.085052 0.100244 0.0809513 0.0964518 0.0654509 0.0809513 0.0610415 0.0768507 0.0809513 0.0964518 0.0768507 0.0926598 0.191701 0.191144 0.218919 0.221078 0.191144 0.188306 0.221078 0.220585 0.218919 0.221078 0.242592 0.247478 0.221078 0.220585 0.247478 0.248972 0.188306 0.189071 0.220585 0.223502 0.189071 0.189223 0.223502 0.225675 0.220585 0.223502 0.248972 0.254122 0.223502 0.225675 0.254122 0.258253 0.294855 0.330583 0.330601 0.3657 0.083056 0.0764731 0.0976038 0.0913431 0.0764731 0.0698903 0.0913431 0.0850825 0.0976038 0.0913431 0.112152 0.106213 0.0913431 0.0850825 0.106213 0.100275 0.0698903 0.0654814 0.0850825 0.0809829 0.0654814 0.0610726 0.0809829 0.0768832 0.0850825 0.0809829 0.100275 0.0964843 0.0809829 0.0768832 0.0964843 0.0926939 0.112152 0.106213 0.130734 0.125411 0.106213 0.100275 0.125411 0.120089 0.130734 0.125411 0.149315 0.144609 0.125411 0.120089 0.144609 0.139903 0.0371451 0.0473954 0.0341147 0.0433919 0.0473954 0.0576456 0.0433919 0.052669 0.0341147 0.0433919 0.0310844 0.0393884 0.0433919 0.052669 0.0393884 0.0476923 0.0576456 0.0703371 0.052669 0.0645567 0.0703371 0.0830286 0.0645567 0.0764444 0.052669 0.0645567 0.0476923 0.0587763 0.0645567 0.0764444 0.0587763 0.0698603 0.0310844 0.0393884 0.028054 0.0359133 0.0393884 0.0476923 0.0359133 0.0437725 0.028054 0.0359133 0.0250237 0.0324382 0.0359133 0.0437725 0.0324382 0.0398527 0.0476923 0.0587763 0.0437725 0.0546117 0.0587763 0.0698603 0.0546117 0.0654509 0.0437725 0.0546117 0.0398527 0.0504471 0.0546117 0.0654509 0.0504471 0.0610415 0.03716 0.0341301 0.0474131 0.0434108 0.0341301 0.0311003 0.0434108 0.0394084 0.0474131 0.0434108 0.0576662 0.0526914 0.0434108 0.0394084 0.0526914 0.0477166 0.0311003 0.0280704 0.0394084 0.0359333 0.0280704 0.0250406 0.0359333 0.0324581 0.0394084 0.0359333 0.0477166 0.0437961 0.0359333 0.0324581 0.0437961 0.0398756 0.0576662 0.0526914 0.0703611 0.0645823 0.0526914 0.0477166 0.0645823 0.0588035 0.0703611 0.0645823 0.083056 0.0764731 0.0645823 0.0588035 0.0764731 0.0698903 0.0477166 0.0437961 0.0588035 0.0546388 0.0437961 0.0398756 0.0546388 0.0504741 0.0588035 0.0546388 0.0698903 0.0654814 0.0546388 0.0504741 0.0654814 0.0610726 0.055773 0.0720549 0.054949 0.0712886 0.0720549 0.0883368 0.0712886 0.0876282 0.054949 0.0712886 0.0541249 0.0705223 0.0712886 0.0876282 0.0705223 0.0869197 0.0541249 0.0705223 0.0552424 0.0721581 0.0705223 0.0869197 0.0721581 0.0890739 0.0552424 0.0721581 0.0563598 0.073794 0.0721581 0.0890739 0.073794 0.0912281 0.0563598 0.073794 0.0600841 0.0778134 0.073794 0.0912281 0.0778134 0.0955426 0.0600841 0.0778134 0.0638084 0.0818328 0.0778134 0.0955426 0.0818328 0.0998571 0.0557969 0.05497 0.0720813 0.0713115 0.05497 0.0541431 0.0713115 0.0705418 0.0720813 0.0713115 0.0883657 0.087653 0.0713115 0.0705418 0.087653 0.0869404 0.0869197 0.109551 0.0890739 0.111656 0.109551 0.136189 0.111656 0.139048 0.0890739 0.111656 0.0912281 0.115019 0.111656 0.139048 0.115019 0.143323 0.0638084 0.0818328 0.0697632 0.0883869 0.0818328 0.0998571 0.0883869 0.108211 0.0697632 0.0883869 0.0784449 0.0959883 0.0883869 0.108211 0.0959883 0.116327 0.115019 0.143323 0.118847 0.148359 0.118847 0.148359 0.124812 0.155014 0.0784449 0.0959883 0.0889681 0.109054 0.0959883 0.116327 0.109054 0.129272 0.0889681 0.109054 0.101478 0.121885 0.109054 0.129272 0.121885 0.142703 0.0638141 0.0697666 0.0818392 0.0883915 0.0697666 0.0784468 0.0883915 0.095991 0.0818392 0.0883915 0.0998642 0.108216 0.0883915 0.095991 0.108216 0.11633 0.0784468 0.088969 0.095991 0.109056 0.088969 0.101478 0.109056 0.121885 0.095991 0.109056 0.11633 0.129273 0.109056 0.121885 0.129273 0.142703 0.0541431 0.0552569 0.0705418 0.0721739 0.0552569 0.0563706 0.0721739 0.073806 0.0705418 0.0721739 0.0869404 0.0890909 0.0721739 0.073806 0.0890909 0.0912414 0.0563706 0.0600923 0.073806 0.0778226 0.0600923 0.0638141 0.0778226 0.0818392 0.073806 0.0778226 0.0912414 0.0955528 0.0778226 0.0818392 0.0955528 0.0998642 0 0 0.00206798 0.00359362 0 0 0.00359362 0.00511927 0.00206798 0.00359362 0.00413595 0.00718724 0.00359362 0.00511927 0.00718724 0.0102385 0.0869404 0.0890909 0.109573 0.111674 0.0890909 0.0912414 0.111674 0.115033 0.109573 0.111674 0.136211 0.139066 0.111674 0.115033 0.139066 0.143338 0.115033 0.118858 0.143338 0.148371 0.118858 0.124821 0.148371 0.155024 0.00413595 0.00718724 0.00600758 0.00862769 0.00718724 0.0102385 0.00862769 0.0112478 0.00600758 0.00862769 0.00787921 0.0100681 0.00862769 0.0112478 0.0100681 0.0122571 0.124812 0.155014 0.132148 0.163129 0.132148 0.163129 0.141914 0.173235 0.0186006 0.0341011 0.0210872 0.0340044 0.0341011 0.0496016 0.0340044 0.0469215 0.0210872 0.0340044 0.0235739 0.0339076 0.0340044 0.0469215 0.0339076 0.0442414 0.0102385 0.0169062 0.0112478 0.0176926 0.0169062 0.0235739 0.0176926 0.0241375 0.0112478 0.0176926 0.0122571 0.0184791 0.0176926 0.0241375 0.0184791 0.0247011 0.0235739 0.0339076 0.0241375 0.0324154 0.0339076 0.0442414 0.0324154 0.0406932 0.0241375 0.0324154 0.0247011 0.0309231 0.0324154 0.0406932 0.0309231 0.0371451 0.124821 0.132154 0.155024 0.163138 0.132154 0.141919 0.163138 0.173244 0.138332 0.162074 0.162071 0.185087 0 0.0020688 0 0.00359485 0.0020688 0.00413761 0.00359485 0.0071897 0 0.00359485 0 0.00512089 0.00359485 0.0071897 0.00512089 0.0102418 0.00511927 0.0135255 0.0102385 0.0169062 0.0135255 0.0210872 0.0169062 0.0235739 0.00413761 0.00601005 0.0071897 0.00863109 0.00601005 0.0078825 0.00863109 0.0100725 0.0071897 0.00863109 0.0102418 0.0112521 0.00863109 0.0100725 0.0112521 0.0122625 0.00512089 0.0102418 0.0135277 0.0169105 0.0135277 0.0169105 0.0210899 0.0235792 0.056223 0.064635 0.0646362 0.0771761 0.064635 0.0784449 0.0771761 0.0889681 0.0646362 0.0771761 0.0784468 0.088969 0.0102418 0.0112521 0.0169105 0.0176987 0.0112521 0.0122625 0.0176987 0.0184868 0.0169105 0.0176987 0.0235792 0.0241452 0.0176987 0.0184868 0.0241452 0.0247112 0.0186006 0.0210899 0.0341011 0.0340079 0.0210899 0.0235792 0.0340079 0.0339146 0.0341011 0.0340079 0.0496016 0.0469258 0.0340079 0.0339146 0.0469258 0.04425 0.0235792 0.0241452 0.0339146 0.0324251 0.0241452 0.0247112 0.0324251 0.0309356 0.0339146 0.0324251 0.04425 0.040705 0.0324251 0.0309356 0.040705 0.03716 0.013662 0.0174419 0.0142231 0.0178212 0.0174419 0.0212217 0.0178212 0.0214193 0.0142231 0.0178212 0.0147842 0.0182006 0.0178212 0.0214193 0.0182006 0.0216169 0.0136659 0.0142251 0.0174481 0.0178253 0.0142251 0.0147842 0.0178253 0.0182024 0.0174481 0.0178253 0.0212304 0.0214255 0.0178253 0.0182024 0.0214255 0.0216206 0.0147842 0.0182006 0.0182024 0.0217701 0.0182006 0.0216169 0.0217701 0.0253378 0.0182024 0.0217701 0.0216206 0.0253396 0.0217701 0.0253378 0.0253396 0.0290587 0.378811 0.405035 0.384519 0.41135 0.405035 0.431259 0.41135 0.438181 0.384519 0.41135 0.390227 0.417665 0.41135 0.438181 0.417665 0.445103 0.358121 0.375456 0.362348 0.386789 0.375456 0.414593 0.386789 0.42049 0.362348 0.386789 0.366575 0.392151 0.386789 0.42049 0.392151 0.427133 0.366575 0.392151 0.372693 0.398194 0.392151 0.427133 0.398194 0.425586 0.372693 0.398194 0.378811 0.405035 0.398194 0.425586 0.405035 0.431259 0.427133 0.437813 0.425586 0.458525 0.437813 0.468115 0.458525 0.475865 0.425586 0.458525 0.431259 0.465195 0.458525 0.475865 0.465195 0.483616 0.414593 0.425295 0.42049 0.43214 0.425295 0.452615 0.43214 0.460365 0.42049 0.43214 0.427133 0.437813 0.43214 0.460365 0.437813 0.468115 0.431259 0.465195 0.438181 0.472401 0.465195 0.483616 0.472401 0.491366 0.438181 0.472401 0.445103 0.479782 0.472401 0.491366 0.479782 0.499116 0.390227 0.417665 0.39626 0.424075 0.417665 0.445103 0.424075 0.45189 0.39626 0.424075 0.402294 0.430485 0.424075 0.45189 0.430485 0.458677 0.445103 0.479782 0.45189 0.487181 0.479782 0.499116 0.487181 0.506866 0.45189 0.487181 0.458677 0.494593 0.487181 0.506866 0.494593 0.514617 0.484534 0.515559 0.493463 0.523631 0.515559 0.546584 0.523631 0.554596 0.493463 0.523631 0.502392 0.532506 0.523631 0.554596 0.532506 0.56275 0.458677 0.494593 0.465571 0.502028 0.494593 0.514617 0.502028 0.522367 0.465571 0.502028 0.472464 0.50951 0.502028 0.522367 0.50951 0.530117 0.502392 0.532506 0.512096 0.540813 0.532506 0.56275 0.540813 0.570819 0.512096 0.540813 0.520851 0.549945 0.540813 0.570819 0.549945 0.579039 0.472464 0.50951 0.479594 0.517028 0.50951 0.530117 0.517028 0.537867 0.479594 0.517028 0.486723 0.524572 0.517028 0.537867 0.524572 0.545618 0.402294 0.430485 0.408653 0.437112 0.430485 0.458677 0.437112 0.465571 0.408653 0.437112 0.415013 0.443738 0.437112 0.465571 0.443738 0.472464 0.358133 0.362359 0.375465 0.386797 0.362359 0.366586 0.386797 0.392159 0.375465 0.386797 0.414599 0.420496 0.386797 0.392159 0.420496 0.427138 0.366586 0.372703 0.392159 0.398201 0.372703 0.378821 0.398201 0.405042 0.392159 0.398201 0.427138 0.425591 0.398201 0.405042 0.425591 0.431264 0.427138 0.425591 0.437816 0.458528 0.425591 0.431264 0.458528 0.465197 0.437816 0.458528 0.468115 0.475865 0.458528 0.465197 0.475865 0.483616 0.415013 0.443738 0.421307 0.45045 0.443738 0.472464 0.45045 0.479594 0.421307 0.45045 0.427601 0.457162 0.45045 0.479594 0.457162 0.486723 0.414599 0.420496 0.425298 0.432143 0.420496 0.427138 0.432143 0.437816 0.425298 0.432143 0.452615 0.460365 0.432143 0.437816 0.460365 0.468115 0.431264 0.438185 0.465197 0.472403 0.438185 0.445107 0.472403 0.479784 0.465197 0.472403 0.483616 0.491366 0.472403 0.479784 0.491366 0.499116 0.445107 0.451895 0.479784 0.487184 0.451895 0.458682 0.487184 0.494596 0.479784 0.487184 0.499116 0.506866 0.487184 0.494596 0.506866 0.514617 0.46975 0.478063 0.500268 0.508161 0.478063 0.48688 0.508161 0.5167 0.500268 0.508161 0.531487 0.538976 0.508161 0.5167 0.538976 0.546521 0.378821 0.384528 0.405042 0.411357 0.384528 0.390235 0.411357 0.417671 0.405042 0.411357 0.431264 0.438185 0.411357 0.417671 0.438185 0.445107 0.458682 0.465577 0.494596 0.502031 0.465577 0.472471 0.502031 0.509513 0.494596 0.502031 0.514617 0.522367 0.502031 0.509513 0.522367 0.530117 0.472471 0.479603 0.509513 0.517033 0.479603 0.486735 0.517033 0.524578 0.509513 0.517033 0.530117 0.537867 0.517033 0.524578 0.537867 0.545618 0.181915 0.192109 0.17743 0.186312 0.192109 0.20274 0.186312 0.198413 0.17743 