# vtk DataFile Version 3.0
#This file was generated by the deal.II library on 2015/4/9 at 19:23:45
ASCII
DATASET UNSTRUCTURED_GRID

POINTS 1840 double
-1 -1 0
-0.75 -1 0
-1 -0.75 0
-0.75 -0.75 0
0.75 -1 0
1 -1 0
0.75 -0.75 0
1 -0.75 0
-1 0.75 0
-0.75 0.75 0
-1 1 0
-0.75 1 0
0.75 0.75 0
1 0.75 0
0.75 1 0
1 1 0
-0.5 -1 0
-0.375 -1 0
-0.5 -0.875 0
-0.375 -0.875 0
-0.375 -1 0
-0.25 -1 0
-0.375 -0.875 0
-0.25 -0.875 0
-0.5 -0.875 0
-0.375 -0.875 0
-0.5 -0.75 0
-0.375 -0.75 0
-0.375 -0.875 0
-0.25 -0.875 0
-0.375 -0.75 0
-0.25 -0.75 0
-1 -0.5 0
-0.875 -0.5 0
-1 -0.375 0
-0.875 -0.375 0
-0.875 -0.5 0
-0.75 -0.5 0
-0.875 -0.375 0
-0.75 -0.375 0
-1 -0.375 0
-0.875 -0.375 0
-1 -0.25 0
-0.875 -0.25 0
-0.875 -0.375 0
-0.75 -0.375 0
-0.875 -0.25 0
-0.75 -0.25 0
0 -1 0
0.125 -1 0
0 -0.875 0
0.125 -0.875 0
0.125 -1 0
0.25 -1 0
0.125 -0.875 0
0.25 -0.875 0
0 -0.875 0
0.125 -0.875 0
0 -0.75 0
0.125 -0.75 0
0.125 -0.875 0
0.25 -0.875 0
0.125 -0.75 0
0.25 -0.75 0
0.25 -1 0
0.375 -1 0
0.25 -0.875 0
0.375 -0.875 0
0.375 -1 0
0.5 -1 0
0.375 -0.875 0
0.5 -0.875 0
0.25 -0.875 0
0.375 -0.875 0
0.25 -0.75 0
0.375 -0.75 0
0.375 -0.875 0
0.5 -0.875 0
0.375 -0.75 0
0.5 -0.75 0
0.75 -0.5 0
0.875 -0.5 0
0.75 -0.375 0
0.875 -0.375 0
0.875 -0.5 0
1 -0.5 0
0.875 -0.375 0
1 -0.375 0
0.75 -0.375 0
0.875 -0.375 0
0.75 -0.25 0
0.875 -0.25 0
0.875 -0.375 0
1 -0.375 0
0.875 -0.25 0
1 -0.25 0
0.625 -0.25 0
0.75 -0.25 0
0.625 -0.125 0
0.75 -0.125 0
0.75 -0.25 0
0.875 -0.25 0
0.75 -0.125 0
0.875 -0.125 0
0.875 -0.25 0
1 -0.25 0
0.875 -0.125 0
1 -0.125 0
0.875 -0.125 0
1 -0.125 0
0.875 0 0
1 0 0
-1 0 0
-0.875 0 0
-1 0.125 0
-0.875 0.125 0
-0.875 0 0
-0.75 0 0
-0.875 0.125 0
-0.75 0.125 0
-1 0.125 0
-0.875 0.125 0
-1 0.25 0
-0.875 0.25 0
-0.875 0.125 0
-0.75 0.125 0
-0.875 0.25 0
-0.75 0.25 0
-1 0.25 0
-0.875 0.25 0
-1 0.375 0
-0.875 0.375 0
-0.875 0.25 0
-0.75 0.25 0
-0.875 0.375 0
-0.75 0.375 0
-1 0.375 0
-0.875 0.375 0
-1 0.5 0
-0.875 0.5 0
-0.875 0.375 0
-0.75 0.375 0
-0.875 0.5 0
-0.75 0.5 0
-0.5 0.75 0
-0.375 0.75 0
-0.5 0.875 0
-0.375 0.875 0
-0.375 0.75 0
-0.25 0.75 0
-0.375 0.875 0
-0.25 0.875 0
-0.5 0.875 0
-0.375 0.875 0
-0.5 1 0
-0.375 1 0
-0.375 0.875 0
-0.25 0.875 0
-0.375 1 0
-0.25 1 0
-0.25 0.75 0
-0.125 0.75 0
-0.25 0.875 0
-0.125 0.875 0
-0.125 0.75 0
0 0.75 0
-0.125 0.875 0
0 0.875 0
-0.25 0.875 0
-0.125 0.875 0
-0.25 1 0
-0.125 1 0
-0.125 0.875 0
0 0.875 0
-0.125 1 0
0 1 0
-0.75 -1 0
-0.625 -1 0
-0.75 -0.875 0
-0.625 -0.875 0
-0.625 -1 0
-0.5 -1 0
-0.625 -0.875 0
-0.5 -0.875 0
-0.75 -0.875 0
-0.625 -0.875 0
-0.75 -0.75 0
-0.625 -0.75 0
-0.625 -0.875 0
-0.5 -0.875 0
-0.625 -0.75 0
-0.5 -0.75 0
-1 -0.75 0
-0.875 -0.75 0
-1 -0.625 0
-0.875 -0.625 0
-0.875 -0.75 0
-0.75 -0.75 0
-0.875 -0.625 0
-0.75 -0.625 0
-1 -0.625 0
-0.875 -0.625 0
-1 -0.5 0
-0.875 -0.5 0
-0.875 -0.625 0
-0.75 -0.625 0
-0.875 -0.5 0
-0.75 -0.5 0
-0.75 -0.75 0
-0.625 -0.75 0
-0.75 -0.625 0
-0.625 -0.625 0
0.5 -1 0
0.625 -1 0
0.5 -0.875 0
0.625 -0.875 0
0.625 -1 0
0.75 -1 0
0.625 -0.875 0
0.75 -0.875 0
0.5 -0.875 0
0.625 -0.875 0
0.5 -0.75 0
0.625 -0.75 0
0.625 -0.875 0
0.75 -0.875 0
0.625 -0.75 0
0.75 -0.75 0
0.625 -0.75 0
0.75 -0.75 0
0.625 -0.625 0
0.75 -0.625 0
0.75 -0.75 0
0.875 -0.75 0
0.75 -0.625 0
0.875 -0.625 0
0.875 -0.75 0
1 -0.75 0
0.875 -0.625 0
1 -0.625 0
0.75 -0.625 0
0.875 -0.625 0
0.75 -0.5 0
0.875 -0.5 0
0.875 -0.625 0
1 -0.625 0
0.875 -0.5 0
1 -0.5 0
-1 0.5 0
-0.875 0.5 0
-1 0.625 0
-0.875 0.625 0
-0.875 0.5 0
-0.75 0.5 0
-0.875 0.625 0
-0.75 0.625 0
-1 0.625 0
-0.875 0.625 0
-1 0.75 0
-0.875 0.75 0
-0.875 0.625 0
-0.75 0.625 0
-0.875 0.75 0
-0.75 0.75 0
-0.75 0.625 0
-0.625 0.625 0
-0.75 0.75 0
-0.625 0.75 0
-0.75 0.75 0
-0.625 0.75 0
-0.75 0.875 0
-0.625 0.875 0
-0.625 0.75 0
-0.5 0.75 0
-0.625 0.875 0
-0.5 0.875 0
-0.75 0.875 0
-0.625 0.875 0
-0.75 1 0
-0.625 1 0
-0.625 0.875 0
-0.5 0.875 0
-0.625 1 0
-0.5 1 0
-0.25 -1 0
-0.125 -1 0
-0.25 -0.875 0
-0.125 -0.875 0
-0.125 -1 0
0 -1 0
-0.125 -0.875 0
0 -0.875 0
-0.25 -0.875 0
-0.125 -0.875 0
-0.25 -0.75 0
-0.125 -0.75 0
-0.125 -0.875 0
0 -0.875 0
-0.125 -0.75 0
0 -0.75 0
0.875 0 0
1 0 0
0.875 0.125 0
1 0.125 0
0.875 0.125 0
1 0.125 0
0.875 0.25 0
1 0.25 0
0.75 0.25 0
0.875 0.25 0
0.75 0.375 0
0.875 0.375 0
0.875 0.25 0
1 0.25 0
0.875 0.375 0
1 0.375 0
0.75 0.375 0
0.875 0.375 0
0.75 0.5 0
0.875 0.5 0
0.875 0.375 0
1 0.375 0
0.875 0.5 0
1 0.5 0
0 0.75 0
0.125 0.75 0
0 0.875 0
0.125 0.875 0
0 0.875 0
0.125 0.875 0
0 1 0
0.125 1 0
0.125 0.875 0
0.25 0.875 0
0.125 1 0
0.25 1 0
0.625 0.625 0
0.75 0.625 0
0.625 0.75 0
0.75 0.75 0
0.75 0.5 0
0.875 0.5 0
0.75 0.625 0
0.875 0.625 0
0.875 0.5 0
1 0.5 0
0.875 0.625 0
1 0.625 0
0.75 0.625 0
0.875 0.625 0
0.75 0.75 0
0.875 0.75 0
0.875 0.625 0
1 0.625 0
0.875 0.75 0
1 0.75 0
0.625 0.75 0
0.75 0.75 0
0.625 0.875 0
0.75 0.875 0
0.5 0.875 0
0.625 0.875 0
0.5 1 0
0.625 1 0
0.625 0.875 0
0.75 0.875 0
0.625 1 0
0.75 1 0
-1 -0.25 0
-0.875 -0.25 0
-1 -0.125 0
-0.875 -0.125 0
-0.875 -0.25 0
-0.75 -0.25 0
-0.875 -0.125 0
-0.75 -0.125 0
-1 -0.125 0
-0.875 -0.125 0
-1 0 0
-0.875 0 0
-0.875 -0.125 0
-0.75 -0.125 0
-0.875 0 0
-0.75 0 0
0.125 -0.75 0
0.25 -0.75 0
0.125 -0.625 0
0.25 -0.625 0
-0.75 0.125 0
-0.625 0.125 0
-0.75 0.25 0
-0.625 0.25 0
-0.5 -0.5 0
-0.375 -0.5 0
-0.5 -0.375 0
-0.375 -0.375 0
-0.375 -0.5 0
-0.25 -0.5 0
-0.375 -0.375 0
-0.25 -0.375 0
-0.5 -0.375 0
-0.375 -0.375 0
-0.5 -0.25 0
-0.375 -0.25 0
-0.375 -0.375 0
-0.25 -0.375 0
-0.375 -0.25 0
-0.25 -0.25 0
-0.25 -0.5 0
-0.125 -0.5 0
-0.25 -0.375 0
-0.125 -0.375 0
-0.125 -0.5 0
0 -0.5 0
-0.125 -0.375 0
0 -0.375 0
-0.25 -0.375 0
-0.125 -0.375 0
-0.25 -0.25 0
-0.125 -0.25 0
-0.125 -0.375 0
0 -0.375 0
-0.125 -0.25 0
0 -0.25 0
-0.5 -0.25 0
-0.375 -0.25 0
-0.5 -0.125 0
-0.375 -0.125 0
-0.375 -0.25 0
-0.25 -0.25 0
-0.375 -0.125 0
-0.25 -0.125 0
-0.5 -0.125 0
-0.375 -0.125 0
-0.5 0 0
-0.375 0 0
-0.375 -0.125 0
-0.25 -0.125 0
-0.375 0 0
-0.25 0 0
0.25 0.875 0
0.375 0.875 0
0.25 1 0
0.375 1 0
0.375 0.875 0
0.5 0.875 0
0.375 1 0
0.5 1 0
-0.25 -0.25 0
-0.125 -0.25 0
-0.25 -0.125 0
-0.125 -0.125 0
-0.125 -0.25 0
0 -0.25 0
-0.125 -0.125 0
0 -0.125 0
-0.25 -0.125 0
-0.125 -0.125 0
-0.25 0 0
-0.125 0 0
-0.125 -0.125 0
0 -0.125 0
-0.125 0 0
0 0 0
0 -0.5 0
0.125 -0.5 0
0 -0.375 0
0.125 -0.375 0
0.125 -0.5 0
0.25 -0.5 0
0.125 -0.375 0
0.25 -0.375 0
0 -0.375 0
0.125 -0.375 0
0 -0.25 0
0.125 -0.25 0
0.125 -0.375 0
0.25 -0.375 0
0.125 -0.25 0
0.25 -0.25 0
0.25 -0.5 0
0.375 -0.5 0
0.25 -0.375 0
0.375 -0.375 0
0.375 -0.5 0
0.5 -0.5 0
0.375 -0.375 0
0.5 -0.375 0
0.25 -0.375 0
0.375 -0.375 0
0.25 -0.25 0
0.375 -0.25 0
0.375 -0.375 0
0.5 -0.375 0
0.375 -0.25 0
0.5 -0.25 0
0 -0.25 0
0.125 -0.25 0
0 -0.125 0
0.125 -0.125 0
0.125 -0.25 0
0.25 -0.25 0
0.125 -0.125 0
0.25 -0.125 0
0 -0.125 0
0.125 -0.125 0
0 0 0
0.125 0 0
0.125 -0.125 0
0.25 -0.125 0
0.125 0 0
0.25 0 0
0.25 -0.25 0
0.375 -0.25 0
0.25 -0.125 0
0.375 -0.125 0
0.375 -0.25 0
0.5 -0.25 0
0.375 -0.125 0
0.5 -0.125 0
0.25 -0.125 0
0.375 -0.125 0
0.25 0 0
0.375 0 0
0.375 -0.125 0
0.5 -0.125 0
0.375 0 0
0.5 0 0
-0.5 0 0
-0.375 0 0
-0.5 0.125 0
-0.375 0.125 0
-0.375 0 0
-0.25 0 0
-0.375 0.125 0
-0.25 0.125 0
-0.5 0.125 0
-0.375 0.125 0
-0.5 0.25 0
-0.375 0.25 0
-0.375 0.125 0
-0.25 0.125 0
-0.375 0.25 0
-0.25 0.25 0
-0.25 0 0
-0.125 0 0
-0.25 0.125 0
-0.125 0.125 0
-0.125 0 0
0 0 0
-0.125 0.125 0
0 0.125 0
-0.25 0.125 0
-0.125 0.125 0
-0.25 0.25 0
-0.125 0.25 0
-0.125 0.125 0
0 0.125 0
-0.125 0.25 0
0 0.25 0
-0.5 0.25 0
-0.375 0.25 0
-0.5 0.375 0
-0.375 0.375 0
-0.375 0.25 0
-0.25 0.25 0
-0.375 0.375 0
-0.25 0.375 0
-0.5 0.375 0
-0.375 0.375 0
-0.5 0.5 0
-0.375 0.5 0
-0.375 0.375 0
-0.25 0.375 0
-0.375 0.5 0
-0.25 0.5 0
-0.25 0.25 0
-0.125 0.25 0
-0.25 0.375 0
-0.125 0.375 0
-0.125 0.25 0
0 0.25 0
-0.125 0.375 0
0 0.375 0
-0.25 0.375 0
-0.125 0.375 0
-0.25 0.5 0
-0.125 0.5 0
-0.125 0.375 0
0 0.375 0
-0.125 0.5 0
0 0.5 0
0 0 0
0.125 0 0
0 0.125 0
0.125 0.125 0
0.125 0 0
0.25 0 0
0.125 0.125 0
0.25 0.125 0
0 0.125 0
0.125 0.125 0
0 0.25 0
0.125 0.25 0
0.125 0.125 0
0.25 0.125 0
0.125 0.25 0
0.25 0.25 0
0.25 0 0
0.375 0 0
0.25 0.125 0
0.375 0.125 0
0.375 0 0
0.5 0 0
0.375 0.125 0
0.5 0.125 0
0.25 0.125 0
0.375 0.125 0
0.25 0.25 0
0.375 0.25 0
0.375 0.125 0
0.5 0.125 0
0.375 0.25 0
0.5 0.25 0
0 0.25 0
0.125 0.25 0
0 0.375 0
0.125 0.375 0
0.125 0.25 0
0.25 0.25 0
0.125 0.375 0
0.25 0.375 0
0 0.375 0
0.125 0.375 0
0 0.5 0
0.125 0.5 0
0.125 0.375 0
0.25 0.375 0
0.125 0.5 0
0.25 0.5 0
0.25 0.25 0
0.375 0.25 0
0.25 0.375 0
0.375 0.375 0
0.375 0.25 0
0.5 0.25 0
0.375 0.375 0
0.5 0.375 0
0.25 0.375 0
0.375 0.375 0
0.25 0.5 0
0.375 0.5 0
0.375 0.375 0
0.5 0.375 0
0.375 0.5 0
0.5 0.5 0
0.5 0 0
0.625 0 0
0.5 0.125 0
0.625 0.125 0
0.625 0 0
0.75 0 0
0.625 0.125 0
0.75 0.125 0
0.5 0.125 0
0.625 0.125 0
0.5 0.25 0
0.625 0.25 0
0.625 0.125 0
0.75 0.125 0
0.625 0.25 0
0.75 0.25 0
0.25 0.5 0
0.375 0.5 0
0.25 0.625 0
0.375 0.625 0
0.375 0.5 0
0.5 0.5 0
0.375 0.625 0
0.5 0.625 0
0.25 0.625 0
0.375 0.625 0
0.25 0.75 0
0.375 0.75 0
0.375 0.625 0
0.5 0.625 0
0.375 0.75 0
0.5 0.75 0
0.5 -0.25 0
0.5625 -0.25 0
0.5 -0.1875 0
0.5625 -0.1875 0
0.5625 -0.25 0
0.625 -0.25 0
0.5625 -0.1875 0
0.625 -0.1875 0
0.5 -0.1875 0
0.5625 -0.1875 0
0.5 -0.125 0
0.5625 -0.125 0
0.5625 -0.1875 0
0.625 -0.1875 0
0.5625 -0.125 0
0.625 -0.125 0
0.5 -0.125 0
0.5625 -0.125 0
0.5 -0.0625 0
0.5625 -0.0625 0
0.5625 -0.125 0
0.625 -0.125 0
0.5625 -0.0625 0
0.625 -0.0625 0
0.5 -0.0625 0
0.5625 -0.0625 0
0.5 0 0
0.5625 0 0
0.5625 -0.0625 0
0.625 -0.0625 0
0.5625 0 0
0.625 0 0
0.625 -0.125 0
0.6875 -0.125 0
0.625 -0.0625 0
0.6875 -0.0625 0
0.6875 -0.125 0
0.75 -0.125 0
0.6875 -0.0625 0
0.75 -0.0625 0
0.625 -0.0625 0
0.6875 -0.0625 0
0.625 0 0
0.6875 0 0
0.6875 -0.0625 0
0.75 -0.0625 0
0.6875 0 0
0.75 0 0
0.75 -0.125 0
0.8125 -0.125 0
0.75 -0.0625 0
0.8125 -0.0625 0
0.8125 -0.125 0
0.875 -0.125 0
0.8125 -0.0625 0
0.875 -0.0625 0
0.75 -0.0625 0
0.8125 -0.0625 0
0.75 0 0
0.8125 0 0
0.8125 -0.0625 0
0.875 -0.0625 0
0.8125 0 0
0.875 0 0
-0.5 0.5 0
-0.4375 0.5 0
-0.5 0.5625 0
-0.4375 0.5625 0
-0.4375 0.5 0
-0.375 0.5 0
-0.4375 0.5625 0
[...]
POINT_DATA 1840
SCALARS U double 1
LOOKUP_TABLE default
-1 -1 -1 -0.808963 -1 -1 -0.808135 -1 -1 -0.808207 -1 -1 -0.807451 -1 -1 -1 -1 -1 -0.830943 -0.808666 -1 -1 -0.808666 -0.794218 -0.830943 -0.808666 -0.674159 -0.631295 -0.808666 -0.794218 -0.631295 -0.603528 -1 -0.830945 -1 -0.80867 -0.830945 -0.674163 -0.80867 -0.631305 -1 -0.80867 -1 -0.794228 -0.80867 -0.631305 -0.794228 -0.603549 -1 -1 -0.783462 -0.785629 -1 -1 -0.785629 -0.793386 -0.783462 -0.785629 -0.583071 -0.586662 -0.785629 -0.793386 -0.586662 -0.601593 -1 -1 -0.793386 -0.807879 -1 -1 -0.807879 -0.830275 -0.793386 -0.807879 -0.601593 -0.629966 -0.807879 -0.830275 -0.629966 -0.67287 -0.672518 -0.830044 -0.629202 -0.807385 -0.830044 -1 -0.807385 -1 -0.629202 -0.807385 -0.600117 -0.792449 -0.807385 -1 -0.792449 -1 -0.438002 -0.600117 -0.416043 -0.584336 -0.600117 -0.792449 -0.584336 -0.783484 -0.792449 -1 -0.783484 -1 -0.783484 -1 -0.78122 -1 -1 -0.783485 -1 -0.785659 -0.783485 -0.583127 -0.785659 -0.586738 -1 -0.785659 -1 -0.793422 -0.785659 -0.586738 -0.793422 -0.601687 -1 -0.793422 -1 -0.807919 -0.793422 -0.601687 -0.807919 -0.630075 -1 -0.807919 -1 -0.830316 -0.807919 -0.630075 -0.830316 -0.672984 -0.672915 -0.629912 -0.830264 -0.807903 -0.629912 -0.602086 -0.807903 -0.793412 -0.830264 -0.807903 -1 -1 -0.807903 -0.793412 -1 -1 -0.602086 -0.586739 -0.793412 -0.785386 -0.586739 -0.581593 -0.785386 -0.782653 -0.793412 -0.785386 -1 -1 -0.785386 -0.782653 -1 -1 -1 -1 -0.904481 -0.862153 -1 -1 -0.862153 -0.830943 -0.904481 -0.862153 -0.808963 -0.733762 -0.862153 -0.830943 -0.733762 -0.674159 -1 -0.904481 -1 -0.862154 -0.904481 -0.808963 -0.862154 -0.733763 -1 -0.862154 -1 -0.830945 -0.862154 -0.733763 -0.830945 -0.674163 -0.808963 -0.733762 -0.733763 -0.625536 -1 -1 -0.830275 -0.861588 -1 -1 -0.861588 -0.904067 -0.830275 -0.861588 -0.67287 -0.732652 -0.861588 -0.904067 -0.732652 -0.808135 -0.732652 -0.808135 -0.623915 -0.732543 -0.808135 -0.904067 -0.732543 -0.861499 -0.904067 -1 -0.861499 -1 -0.732543 -0.861499 -0.672518 -0.830044 -0.861499 -1 -0.830044 -1 -1 -0.830316 -1 -0.861624 -0.830316 -0.672984 -0.861624 -0.732753 -1 -0.861624 -1 -0.904104 -0.861624 -0.732753 -0.904104 -0.808207 -0.732753 -0.624156 -0.808207 -0.732727 -0.808207 -0.732727 -0.904104 -0.861598 -0.732727 -0.672915 -0.861598 -0.830264 -0.904104 -0.861598 -1 -1 -0.861598 -0.830264 -1 -1 -1 -1 -0.794218 -0.786217 -1 -1 -0.786217 -0.783462 -0.794218 -0.786217 -0.603528 -0.588164 -0.786217 -0.783462 -0.588164 -0.583071 -0.78122 -1 -0.783492 -1 -0.783492 -1 -0.791088 -1 -0.598427 -0.791088 -0.628172 -0.806659 -0.791088 -1 -0.806659 -1 -0.628172 -0.806659 -0.671696 -0.829562 -0.806659 -1 -0.829562 -1 -0.581593 -0.586017 -0.782653 -0.784141 -0.782653 -0.784141 -1 -1 -0.784141 -0.79217 -1 -1 -0.622838 -0.731819 -0.731734 -0.807451 -0.671696 -0.829562 -0.731819 -0.861123 -0.829562 -1 -0.861123 -1 -0.731819 -0.861123 -0.807451 -0.903726 -0.861123 -1 -0.903726 -1 -0.731734 -0.807451 -0.860179 -0.903726 -0.828797 -0.860179 -1 -1 -0.860179 -0.903726 -1 -1 -1 -0.794228 -1 -0.786233 -0.794228 -0.603549 -0.786233 -0.5882 -1 -0.786233 -1 -0.783485 -0.786233 -0.5882 -0.783485 -0.583127 -0.586662 -0.601593 -0.418226 -0.439453 -0.586738 -0.418375 -0.601687 -0.439648 -0.43757 -0.363196 -0.363211 -0.280139 -0.363196 -0.315171 -0.280139 -0.225654 -0.363211 -0.280139 -0.315217 -0.225694 -0.280139 -0.225654 -0.225694 -0.167071 -0.315171 -0.288574 -0.225654 -0.195421 -0.288574 -0.279602 -0.195421 -0.185435 -0.225654 -0.195421 -0.167071 -0.1345 -0.195421 -0.185435 -0.1345 -0.123786 -0.315217 -0.225694 -0.28867 -0.195533 -0.225694 -0.167071 -0.195533 -0.134588 -0.28867 -0.195533 -0.279768 -0.185654 -0.195533 -0.134588 -0.185654 -0.124017 -0.79217 -0.806363 -1 -1 -0.806363 -0.828797 -1 -1 -0.167071 -0.1345 -0.134588 -0.100715 -0.1345 -0.123786 -0.100715 -0.0895859 -0.134588 -0.100715 -0.124017 -0.089752 -0.100715 -0.0895859 -0.089752 -0.0784826 -0.279602 -0.287124 -0.185435 -0.194271 -0.287124 -0.312929 -0.194271 -0.22362 -0.185435 -0.194271 -0.123786 -0.133429 -0.194271 -0.22362 -0.133429 -0.165062 -0.312929 -0.360764 -0.22362 -0.277546 -0.360764 -0.435218 -0.277546 -0.360261 -0.22362 -0.277546 -0.165062 -0.222908 -0.277546 -0.360261 -0.222908 -0.311737 -0.123786 -0.133429 -0.0895859 -0.099622 -0.133429 -0.165062 -0.099622 -0.132529 -0.0895859 -0.099622 -0.0784826 -0.0886468 -0.099622 -0.132529 -0.0886468 -0.121967 -0.165062 -0.222908 -0.132529 -0.192629 -0.222908 -0.311737 -0.192629 -0.285212 -0.132529 -0.192629 -0.121967 -0.182933 -0.192629 -0.285212 -0.182933 -0.276224 -0.279768 -0.185654 -0.287376 -0.19463 -0.185654 -0.124017 -0.19463 -0.13386 -0.287376 -0.19463 -0.313279 -0.224154 -0.19463 -0.13386 -0.224154 -0.165749 -0.124017 -0.089752 -0.13386 -0.100037 -0.089752 -0.0784826 -0.100037 -0.088924 -0.13386 -0.100037 -0.165749 -0.13327 -0.100037 -0.088924 -0.13327 -0.122613 -0.313279 -0.224154 -0.361223 -0.278299 -0.224154 -0.165749 -0.278299 -0.223942 -0.361223 -0.278299 -0.43574 -0.361284 -0.278299 -0.223942 -0.361284 -0.313301 -0.165749 -0.13327 -0.223942 -0.193841 -0.13327 -0.122613 -0.193841 -0.184019 -0.223942 -0.193841 -0.313301 -0.286831 -0.193841 -0.184019 -0.286831 -0.278216 -0.0784826 -0.0886468 -0.088924 -0.0989702 -0.0886468 -0.121967 -0.0989702 -0.13193 -0.088924 -0.0989702 -0.122613 -0.132312 -0.0989702 -0.13193 -0.132312 -0.164041 -0.121967 -0.182933 -0.13193 -0.192143 -0.182933 -0.276224 -0.192143 -0.28559 -0.13193 -0.192143 -0.164041 -0.222104 -0.192143 -0.28559 -0.222104 -0.31092 -0.122613 -0.132312 -0.184019 -0.193006 -0.132312 -0.164041 -0.193006 -0.222564 -0.184019 -0.193006 -0.278216 -0.286256 -0.193006 -0.222564 -0.286256 -0.311763 -0.164041 -0.222104 -0.222564 -0.276528 -0.222104 -0.31092 -0.276528 -0.35962 -0.222564 -0.276528 -0.311763 -0.360768 -0.276528 -0.35962 -0.360768 -0.433971 -0.276224 -0.408657 -0.28559 -0.416411 -0.408657 -0.57952 -0.416411 -0.584226 -0.28559 -0.416411 -0.31092 -0.437027 -0.416411 -0.584226 -0.437027 -0.598427 -0.311763 -0.360768 -0.438011 -0.47826 -0.360768 -0.433971 -0.47826 -0.537906 -0.438011 -0.47826 -0.600469 -0.628175 -0.47826 -0.537906 -0.628175 -0.671312 -0.311737 -0.371885 -0.298474 -0.357129 -0.371885 -0.438002 -0.357129 -0.427023 -0.298474 -0.357129 -0.285212 -0.347338 -0.357129 -0.427023 -0.347338 -0.416043 -0.285212 -0.347338 -0.280718 -0.341684 -0.347338 -0.416043 -0.341684 -0.412769 -0.280718 -0.341684 -0.276224 -0.342441 -0.341684 -0.412769 -0.342441 -0.408657 -0.416043 -0.500189 -0.412769 -0.493738 -0.500189 -0.584336 -0.493738 -0.582346 -0.412769 -0.493738 -0.408657 -0.494089 -0.493738 -0.582346 -0.494089 -0.57952 -0.584336 -0.68391 -0.582346 -0.679418 -0.68391 -0.783484 -0.679418 -0.782352 -0.582346 -0.679418 -0.57952 -0.678082 -0.679418 -0.782352 -0.678082 -0.78122 -0.43574 -0.398512 -0.485818 -0.449086 -0.398512 -0.361284 -0.449086 -0.41811 -0.485818 -0.449086 -0.541509 -0.508522 -0.449086 -0.41811 -0.508522 -0.480874 -0.361284 -0.337293 -0.41811 -0.39333 -0.337293 -0.313301 -0.39333 -0.37399 -0.41811 -0.39333 -0.480874 -0.458983 -0.39333 -0.37399 -0.458983 -0.441546 -0.541509 -0.508522 -0.604555 -0.57628 -0.508522 -0.480874 -0.57628 -0.55242 -0.604555 -0.57628 -0.672915 -0.651413 -0.57628 -0.55242 -0.651413 -0.629912 -0.480874 -0.458983 -0.55242 -0.533431 -0.458983 -0.441546 -0.533431 -0.518486 -0.55242 -0.533431 -0.629912 -0.615999 -0.533431 -0.518486 -0.615999 -0.602086 -0.313301 -0.300066 -0.37399 -0.359515 -0.300066 -0.286831 -0.359515 -0.349603 -0.37399 -0.359515 -0.441546 -0.42877 -0.359515 -0.349603 -0.42877 -0.419779 -0.286831 -0.282524 -0.349603 -0.343582 -0.282524 -0.278216 -0.343582 -0.341699 -0.349603 -0.343582 -0.419779 -0.414608 -0.343582 -0.341699 -0.414608 -0.412636 -0.441546 -0.42877 -0.518486 -0.507383 -0.42877 -0.419779 -0.507383 -0.49972 -0.518486 -0.507383 -0.602086 -0.594413 -0.507383 -0.49972 -0.594413 -0.586739 -0.419779 -0.414608 -0.49972 -0.495107 -0.414608 -0.412636 -0.495107 -0.493564 -0.49972 -0.495107 -0.586739 -0.584166 -0.495107 -0.493564 -0.584166 -0.581593 -0.733762 -0.703961 -0.679649 -0.63985 -0.703961 -0.674159 -0.63985 -0.606012 -0.679649 -0.63985 -0.625536 -0.582044 -0.63985 -0.606012 -0.582044 -0.543124 -0.733763 -0.67965 -0.703963 -0.639852 -0.67965 -0.625536 -0.639852 -0.582045 -0.703963 -0.639852 -0.674163 -0.606017 -0.639852 -0.582045 -0.606017 -0.543129 -0.625536 -0.582044 -0.582045 -0.531916 -0.582044 -0.543124 -0.531916 -0.487561 -0.582045 -0.531916 -0.543129 -0.487564 -0.531916 -0.487561 -0.487564 -0.43757 -0.67287 -0.702761 -0.604423 -0.638366 -0.702761 -0.732652 -0.638366 -0.678284 -0.604423 -0.638366 -0.541284 -0.580293 -0.638366 -0.678284 -0.580293 -0.623915 -0.541284 -0.580293 -0.485445 -0.529901 -0.580293 -0.623915 -0.529901 -0.580173 -0.485445 -0.529901 -0.435218 -0.48527 -0.529901 -0.580173 -0.48527 -0.540996 -0.623915 -0.678229 -0.580173 -0.638177 -0.678229 -0.732543 -0.638177 -0.702531 -0.580173 -0.638177 -0.540996 -0.604073 -0.638177 -0.702531 -0.604073 -0.672518 -0.672984 -0.604597 -0.702869 -0.638538 -0.604597 -0.541543 -0.638538 -0.580553 -0.702869 -0.638538 -0.732753 -0.678455 -0.638538 -0.580553 -0.678455 -0.624156 -0.541543 -0.485821 -0.580553 -0.530276 -0.485821 -0.43574 -0.530276 -0.485818 -0.580553 -0.530276 -0.624156 -0.580534 -0.530276 -0.485818 -0.580534 -0.541509 -0.624156 -0.580534 -0.678442 -0.638503 -0.580534 -0.541509 -0.638503 -0.604555 -0.678442 -0.638503 -0.732727 -0.702821 -0.638503 -0.604555 -0.702821 -0.672915 -0.57952 -0.678082 -0.581873 -0.678737 -0.678082 -0.78122 -0.678737 -0.782356 -0.581873 -0.678737 -0.584226 -0.681404 -0.678737 -0.782356 -0.681404 -0.783492 -0.584226 -0.681404 -0.591327 -0.686186 -0.681404 -0.783492 -0.686186 -0.78729 -0.591327 -0.686186 -0.598427 -0.694758 -0.686186 -0.78729 -0.694758 -0.791088 -0.31092 -0.373974 -0.33527 -0.391262 -0.373974 -0.437027 -0.391262 -0.456959 -0.33527 -0.391262 -0.35962 -0.41623 -0.391262 -0.456959 -0.41623 -0.47893 -0.437027 -0.517727 -0.456959 -0.531005 -0.517727 -0.598427 -0.531005 -0.613299 -0.456959 -0.531005 -0.47893 -0.550461 -0.531005 -0.613299 -0.550461 -0.628172 -0.35962 -0.41623 -0.396796 -0.447409 -0.41623 -0.47893 -0.447409 -0.506872 -0.396796 -0.447409 -0.433971 -0.484327 -0.447409 -0.506872 -0.484327 -0.540027 -0.47893 -0.550461 -0.506872 -0.574652 -0.550461 -0.628172 -0.574652 -0.649934 -0.506872 -0.574652 -0.540027 -0.603131 -0.574652 -0.649934 -0.603131 -0.671696 -0.278216 -0.282236 -0.341699 -0.343289 -0.282236 -0.286256 -0.343289 -0.348999 -0.341699 -0.343289 -0.412636 -0.414344 -0.343289 -0.348999 -0.414344 -0.419147 -0.286256 -0.29901 -0.348999 -0.358565 -0.29901 -0.311763 -0.358565 -0.374887 -0.348999 -0.358565 -0.419147 -0.427853 -0.358565 -0.374887 -0.427853 -0.438011 -0.412636 -0.414344 -0.493564 -0.494757 -0.414344 -0.419147 -0.494757 -0.499058 -0.493564 -0.494757 -0.581593 -0.583805 -0.494757 -0.499058 -0.583805 -0.586017 -0.419147 -0.427853 -0.499058 -0.50667 -0.427853 -0.438011 -0.50667 -0.51924 -0.499058 -0.50667 -0.586017 -0.593031 -0.50667 -0.51924 -0.593031 -0.600469 -0.674159 -0.652727 -0.606012 -0.577816 -0.652727 -0.631295 -0.577816 -0.554011 -0.606012 -0.577816 -0.543124 -0.510218 -0.577816 -0.554011 -0.510218 -0.482628 -0.631295 -0.617411 -0.554011 -0.535063 -0.617411 -0.603528 -0.535063 -0.520128 -0.554011 -0.535063 -0.482628 -0.460761 -0.535063 -0.520128 -0.460761 -0.443329 -0.543124 -0.510218 -0.487561 -0.4509 -0.510218 -0.482628 -0.4509 -0.419959 -0.487561 -0.4509 -0.43757 -0.400383 -0.4509 -0.419959 -0.400383 -0.363196 -0.482628 -0.460761 -0.419959 -0.395195 -0.460761 -0.443329 -0.395195 -0.375842 -0.419959 -0.395195 -0.363196 -0.339184 -0.395195 -0.375842 -0.339184 -0.315171 -0.586017 -0.593031 -0.685079 -0.687923 -0.593031 -0.600469 -0.687923 -0.694286 -0.685079 -0.687923 -0.784141 -0.788155 -0.687923 -0.694286 -0.788155 -0.79217 -0.433971 -0.484327 -0.485938 -0.528664 -0.484327 -0.540027 -0.528664 -0.579192 -0.485938 -0.528664 -0.537906 -0.578951 -0.528664 -0.579192 -0.578951 -0.622838 -0.540027 -0.603131 -0.579192 -0.637287 -0.603131 -0.671696 -0.637287 -0.701758 -0.579192 -0.637287 -0.622838 -0.677328 -0.637287 -0.701758 -0.677328 -0.731819 -0.537906 -0.578951 -0.604609 -0.637165 -0.578951 -0.622838 -0.637165 -0.677286 -0.604609 -0.637165 -0.671312 -0.700516 -0.637165 -0.677286 -0.700516 -0.731734 -0.671312 -0.700516 -0.748564 -0.770366 -0.700516 -0.731734 -0.770366 -0.795957 -0.748564 -0.770366 -0.828797 -0.844488 -0.770366 -0.795957 -0.844488 -0.860179 -0.603528 -0.595846 -0.520128 -0.509006 -0.595846 -0.588164 -0.509006 -0.501326 -0.520128 -0.509006 -0.443329 -0.430524 -0.509006 -0.501326 -0.430524 -0.421473 -0.588164 -0.585618 -0.501326 -0.496651 -0.585618 -0.583071 -0.496651 -0.494926 -0.501326 -0.496651 -0.421473 -0.416145 -0.496651 -0.494926 -0.416145 -0.414097 -0.443329 -0.430524 -0.375842 -0.361325 -0.430524 -0.421473 -0.361325 -0.351329 -0.375842 -0.361325 -0.315171 -0.301872 -0.361325 -0.351329 -0.301872 -0.288574 -0.421473 -0.416145 -0.351329 -0.345171 -0.416145 -0.414097 -0.345171 -0.343063 -0.351329 -0.345171 -0.288574 -0.284088 -0.345171 -0.343063 -0.284088 -0.279602 -0.674163 -0.606017 -0.652734 -0.577825 -0.606017 -0.543129 -0.577825 -0.510228 -0.652734 -0.577825 -0.631305 -0.554025 -0.577825 -0.510228 -0.554025 -0.482644 -0.543129 -0.487564 -0.510228 -0.450909 -0.487564 -0.43757 -0.450909 -0.40039 -0.510228 -0.450909 -0.482644 -0.419977 -0.450909 -0.40039 -0.419977 -0.363211 -0.631305 -0.554025 -0.617427 -0.535083 -0.554025 -0.482644 -0.535083 -0.460786 -0.617427 -0.535083 -0.603549 -0.520157 -0.535083 -0.460786 -0.520157 -0.443365 -0.482644 -0.419977 -0.460786 -0.395223 -0.419977 -0.363211 -0.395223 -0.339214 -0.460786 -0.395223 -0.443365 -0.375885 -0.395223 -0.339214 -0.375885 -0.315217 -0.603549 -0.520157 -0.595875 -0.509045 -0.520157 -0.443365 -0.509045 -0.430574 -0.595875 -0.509045 -0.5882 -0.501377 -0.509045 -0.430574 -0.501377 -0.421539 -0.443365 -0.375885 -0.430574 -0.361386 -0.375885 -0.315217 -0.361386 -0.301944 -0.430574 -0.361386 -0.421539 -0.351412 -0.361386 -0.301944 -0.351412 -0.28867 -0.5882 -0.501377 -0.585664 -0.496715 -0.501377 -0.421539 -0.496715 -0.41623 -0.585664 -0.496715 -0.583127 -0.495005 -0.496715 -0.41623 -0.495005 -0.414202 -0.421539 -0.351412 -0.41623 -0.345278 -0.351412 -0.28867 -0.345278 -0.284219 -0.41623 -0.345278 -0.414202 -0.343199 -0.345278 -0.284219 -0.343199 -0.279768 -0.583071 -0.584867 -0.494926 -0.496066 -0.584867 -0.586662 -0.496066 -0.502444 -0.494926 -0.496066 -0.414097 -0.415312 -0.496066 -0.502444 -0.415312 -0.418226 -0.414097 -0.415312 -0.343063 -0.3442 -0.415312 -0.418226 -0.3442 -0.349466 -0.343063 -0.3442 -0.279602 -0.283363 -0.3442 -0.349466 -0.283363 -0.287124 -0.418226 -0.42884 -0.349466 -0.358794 -0.42884 -0.439453 -0.358794 -0.373257 -0.349466 -0.358794 -0.287124 -0.300027 -0.358794 -0.373257 -0.300027 -0.312929 -0.601593 -0.615779 -0.520523 -0.533336 -0.615779 -0.629966 -0.533336 -0.552258 -0.520523 -0.533336 -0.439453 -0.458568 -0.533336 -0.552258 -0.458568 -0.480648 -0.629966 -0.651418 -0.552258 -0.576198 -0.651418 -0.67287 -0.576198 -0.604423 -0.552258 -0.576198 -0.480648 -0.508267 -0.576198 -0.604423 -0.508267 -0.541284 -0.439453 -0.458568 -0.373257 -0.392743 -0.458568 -0.480648 -0.392743 -0.417706 -0.373257 -0.392743 -0.312929 -0.336847 -0.392743 -0.417706 -0.336847 -0.360764 -0.480648 -0.508267 -0.417706 -0.448719 -0.508267 -0.541284 -0.448719 -0.485445 -0.417706 -0.448719 -0.360764 -0.397991 -0.448719 -0.485445 -0.397991 -0.435218 -0.435218 -0.48527 -0.39774 -0.448317 -0.48527 -0.540996 -0.448317 -0.507751 -0.39774 -0.448317 -0.360261 -0.417031 -0.448317 -0.507751 -0.417031 -0.479878 -0.540996 -0.604073 -0.507751 -0.575637 -0.604073 -0.672518 -0.575637 -0.65086 -0.507751 -0.575637 -0.479878 -0.551432 -0.575637 -0.65086 -0.551432 -0.629202 -0.360261 -0.417031 -0.335999 -0.391755 -0.417031 -0.479878 -0.391755 -0.457457 -0.335999 -0.391755 -0.311737 -0.371885 -0.391755 -0.457457 -0.371885 -0.438002 -0.479878 -0.551432 -0.457457 -0.532215 -0.551432 -0.629202 -0.532215 -0.61466 -0.457457 -0.532215 -0.438002 -0.51906 -0.532215 -0.61466 -0.51906 -0.600117 -0.583127 -0.495005 -0.584932 -0.49616 -0.495005 -0.414202 -0.49616 -0.41544 -0.584932 -0.49616 -0.586738 -0.502556 -0.49616 -0.41544 -0.502556 -0.418375 -0.414202 -0.343199 -0.41544 -0.344366 -0.343199 -0.279768 -0.344366 -0.283572 -0.41544 -0.344366 -0.418375 -0.349664 -0.344366 -0.283572 -0.349664 -0.287376 -0.418375 -0.349664 -0.429012 -0.359026 -0.349664 -0.287376 -0.359026 -0.300327 -0.429012 -0.359026 -0.439648 -0.373525 -0.359026 -0.300327 -0.373525 -0.313279 -0.601687 -0.520668 -0.615881 -0.53349 -0.520668 -0.439648 -0.53349 -0.458788 -0.615881 -0.53349 -0.630075 -0.552422 -0.53349 -0.458788 -0.552422 -0.480886 -0.439648 -0.373525 -0.458788 -0.393046 -0.373525 -0.313279 -0.393046 -0.337251 -0.458788 -0.393046 -0.480886 -0.41804 -0.393046 -0.337251 -0.41804 -0.361223 -0.630075 -0.552422 -0.65153 -0.57637 -0.552422 -0.480886 -0.57637 -0.508519 -0.65153 -0.57637 -0.672984 -0.604597 -0.57637 -0.508519 -0.604597 -0.541543 -0.480886 -0.41804 -0.508519 -0.449079 -0.41804 -0.361223 -0.449079 -0.398481 -0.508519 -0.449079 -0.541543 -0.485821 -0.449079 -0.398481 -0.485821 -0.43574 -0.600469 -0.614322 -0.694286 -0.703493 -0.614322 -0.628175 -0.703493 -0.715429 -0.694286 -0.703493 -0.79217 -0.799267 -0.703493 -0.715429 -0.799267 -0.806363 -0.628175 -0.649743 -0.715429 -0.730516 -0.649743 -0.671312 -0.730516 -0.748564 -0.715429 -0.730516 -0.806363 -0.81758 -0.730516 -0.748564 -0.81758 -0.828797 
