# vtk DataFile Version 3.0
#This file was generated by the deal.II library on 2015/5/12 at 16: 3:46
ASCII
DATASET UNSTRUCTURED_GRID

POINTS 1744 double
0 0 0
5 0 0
0 5 0
5 5 0
5 0 0
10 0 0
5 5 0
10 5 0
0 5 0
5 5 0
0 10 0
5 10 0
5 5 0
10 5 0
5 10 0
10 10 0
-2.5 -7.5 0
0 -7.5 0
-2.5 -5 0
0 -5 0
-7.5 -2.5 0
-5 -2.5 0
-7.5 0 0
-5 0 0
0 -5 0
2.5 -5 0
0 -2.5 0
2.5 -2.5 0
2.5 -5 0
5 -5 0
2.5 -2.5 0
5 -2.5 0
0 -2.5 0
2.5 -2.5 0
0 0 0
2.5 0 0
2.5 -2.5 0
5 -2.5 0
2.5 0 0
5 0 0
5 -5 0
7.5 -5 0
5 -2.5 0
7.5 -2.5 0
7.5 -5 0
10 -5 0
7.5 -2.5 0
10 -2.5 0
5 -2.5 0
7.5 -2.5 0
5 0 0
7.5 0 0
7.5 -2.5 0
10 -2.5 0
7.5 0 0
10 0 0
-5 0 0
-2.5 0 0
-5 2.5 0
-2.5 2.5 0
-2.5 0 0
0 0 0
-2.5 2.5 0
0 2.5 0
-5 2.5 0
-2.5 2.5 0
-5 5 0
-2.5 5 0
-2.5 2.5 0
0 2.5 0
-2.5 5 0
0 5 0
7.5 -7.5 0
10 -7.5 0
7.5 -5 0
10 -5 0
-5 -5 0
-2.5 -5 0
-5 -2.5 0
-2.5 -2.5 0
-2.5 -5 0
0 -5 0
-2.5 -2.5 0
0 -2.5 0
-5 -2.5 0
-2.5 -2.5 0
-5 0 0
-2.5 0 0
-2.5 -2.5 0
0 -2.5 0
-2.5 0 0
0 0 0
-5 5 0
-2.5 5 0
-5 7.5 0
-2.5 7.5 0
-2.5 5 0
0 5 0
-2.5 7.5 0
0 7.5 0
-5 7.5 0
-2.5 7.5 0
-5 10 0
-2.5 10 0
-2.5 7.5 0
0 7.5 0
-2.5 10 0
0 10 0
2.5 -7.5 0
3.75 -7.5 0
2.5 -6.25 0
3.75 -6.25 0
3.75 -7.5 0
5 -7.5 0
3.75 -6.25 0
5 -6.25 0
2.5 -6.25 0
3.75 -6.25 0
2.5 -5 0
3.75 -5 0
3.75 -6.25 0
5 -6.25 0
3.75 -5 0
5 -5 0
-3.75 -8.75 0
-2.5 -8.75 0
-3.75 -7.5 0
-2.5 -7.5 0
-2.5 -8.75 0
-1.25 -8.75 0
-2.5 -7.5 0
-1.25 -7.5 0
-1.25 -8.75 0
0 -8.75 0
-1.25 -7.5 0
0 -7.5 0
-7.5 -7.5 0
-6.25 -7.5 0
-7.5 -6.25 0
-6.25 -6.25 0
-6.25 -7.5 0
-5 -7.5 0
-6.25 -6.25 0
-5 -6.25 0
-7.5 -6.25 0
-6.25 -6.25 0
-7.5 -5 0
-6.25 -5 0
-6.25 -6.25 0
-5 -6.25 0
-6.25 -5 0
-5 -5 0
0 -7.5 0
1.25 -7.5 0
0 -6.25 0
1.25 -6.25 0
1.25 -7.5 0
2.5 -7.5 0
1.25 -6.25 0
2.5 -6.25 0
0 -6.25 0
1.25 -6.25 0
0 -5 0
1.25 -5 0
1.25 -6.25 0
2.5 -6.25 0
1.25 -5 0
2.5 -5 0
-8.75 -3.75 0
-7.5 -3.75 0
-8.75 -2.5 0
-7.5 -2.5 0
-7.5 0 0
-6.25 0 0
-7.5 1.25 0
-6.25 1.25 0
-6.25 0 0
-5 0 0
-6.25 1.25 0
-5 1.25 0
-7.5 1.25 0
-6.25 1.25 0
-7.5 2.5 0
-6.25 2.5 0
-6.25 1.25 0
-5 1.25 0
-6.25 2.5 0
-5 2.5 0
-8.75 -2.5 0
-7.5 -2.5 0
-8.75 -1.25 0
-7.5 -1.25 0
-8.75 -1.25 0
-7.5 -1.25 0
-8.75 0 0
-7.5 0 0
-5 -7.5 0
-3.75 -7.5 0
-5 -6.25 0
-3.75 -6.25 0
-3.75 -7.5 0
-2.5 -7.5 0
-3.75 -6.25 0
-2.5 -6.25 0
-5 -6.25 0
-3.75 -6.25 0
-5 -5 0
-3.75 -5 0
-3.75 -6.25 0
-2.5 -6.25 0
-3.75 -5 0
-2.5 -5 0
3.75 -8.75 0
5 -8.75 0
3.75 -7.5 0
5 -7.5 0
5 -7.5 0
6.25 -7.5 0
5 -6.25 0
6.25 -6.25 0
6.25 -7.5 0
7.5 -7.5 0
6.25 -6.25 0
7.5 -6.25 0
5 -6.25 0
6.25 -6.25 0
5 -5 0
6.25 -5 0
6.25 -6.25 0
7.5 -6.25 0
6.25 -5 0
7.5 -5 0
-7.5 2.5 0
-6.25 2.5 0
-7.5 3.75 0
-6.25 3.75 0
-6.25 2.5 0
-5 2.5 0
-6.25 3.75 0
-5 3.75 0
-7.5 3.75 0
-6.25 3.75 0
-7.5 5 0
-6.25 5 0
-6.25 3.75 0
-5 3.75 0
-6.25 5 0
-5 5 0
-7.5 -5 0
-6.25 -5 0
-7.5 -3.75 0
-6.25 -3.75 0
-6.25 -5 0
-5 -5 0
-6.25 -3.75 0
-5 -3.75 0
-7.5 -3.75 0
-6.25 -3.75 0
-7.5 -2.5 0
-6.25 -2.5 0
-6.25 -3.75 0
-5 -3.75 0
-6.25 -2.5 0
-5 -2.5 0
-10 5 0
-8.75 5 0
-10 6.25 0
-8.75 6.25 0
-8.75 5 0
-7.5 5 0
-8.75 6.25 0
-7.5 6.25 0
-10 6.25 0
-8.75 6.25 0
-10 7.5 0
-8.75 7.5 0
-8.75 6.25 0
-7.5 6.25 0
-8.75 7.5 0
-7.5 7.5 0
6.25 -8.75 0
7.5 -8.75 0
6.25 -7.5 0
7.5 -7.5 0
7.5 -10 0
8.75 -10 0
7.5 -8.75 0
8.75 -8.75 0
8.75 -10 0
10 -10 0
8.75 -8.75 0
10 -8.75 0
7.5 -8.75 0
8.75 -8.75 0
7.5 -7.5 0
8.75 -7.5 0
8.75 -8.75 0
10 -8.75 0
8.75 -7.5 0
10 -7.5 0
-7.5 5 0
-6.25 5 0
-7.5 6.25 0
-6.25 6.25 0
-6.25 5 0
-5 5 0
-6.25 6.25 0
-5 6.25 0
-7.5 6.25 0
-6.25 6.25 0
-7.5 7.5 0
-6.25 7.5 0
-6.25 6.25 0
-5 6.25 0
-6.25 7.5 0
-5 7.5 0
-10 7.5 0
-8.75 7.5 0
-10 8.75 0
-8.75 8.75 0
-8.75 7.5 0
-7.5 7.5 0
-8.75 8.75 0
-7.5 8.75 0
-10 8.75 0
-8.75 8.75 0
-10 10 0
-8.75 10 0
-8.75 8.75 0
-7.5 8.75 0
-8.75 10 0
-7.5 10 0
-7.5 7.5 0
-6.25 7.5 0
-7.5 8.75 0
-6.25 8.75 0
-6.25 7.5 0
-5 7.5 0
-6.25 8.75 0
-5 8.75 0
-7.5 8.75 0
-6.25 8.75 0
-7.5 10 0
-6.25 10 0
-6.25 8.75 0
-5 8.75 0
-6.25 10 0
-5 10 0
-7.5 -8.75 0
-6.875 -8.75 0
-7.5 -8.125 0
-6.875 -8.125 0
-6.875 -8.75 0
-6.25 -8.75 0
-6.875 -8.125 0
-6.25 -8.125 0
-7.5 -8.125 0
-6.875 -8.125 0
-7.5 -7.5 0
-6.875 -7.5 0
-6.875 -8.125 0
-6.25 -8.125 0
-6.875 -7.5 0
-6.25 -7.5 0
0 -8.75 0
0.625 -8.75 0
0 -8.125 0
0.625 -8.125 0
0.625 -8.75 0
1.25 -8.75 0
0.625 -8.125 0
1.25 -8.125 0
0 -8.125 0
0.625 -8.125 0
0 -7.5 0
0.625 -7.5 0
0.625 -8.125 0
1.25 -8.125 0
0.625 -7.5 0
1.25 -7.5 0
1.25 -8.75 0
1.875 -8.75 0
1.25 -8.125 0
1.875 -8.125 0
1.875 -8.75 0
2.5 -8.75 0
1.875 -8.125 0
2.5 -8.125 0
1.25 -8.125 0
1.875 -8.125 0
1.25 -7.5 0
1.875 -7.5 0
1.875 -8.125 0
2.5 -8.125 0
1.875 -7.5 0
2.5 -7.5 0
-6.25 -8.75 0
-5.625 -8.75 0
-6.25 -8.125 0
-5.625 -8.125 0
-5.625 -8.75 0
-5 -8.75 0
-5.625 -8.125 0
-5 -8.125 0
-6.25 -8.125 0
-5.625 -8.125 0
-6.25 -7.5 0
-5.625 -7.5 0
-5.625 -8.125 0
-5 -8.125 0
-5.625 -7.5 0
-5 -7.5 0
-8.75 0 0
-8.125 0 0
-8.75 0.625 0
-8.125 0.625 0
-8.125 0 0
-7.5 0 0
-8.125 0.625 0
-7.5 0.625 0
-8.75 0.625 0
-8.125 0.625 0
-8.75 1.25 0
-8.125 1.25 0
-8.125 0.625 0
-7.5 0.625 0
-8.125 1.25 0
-7.5 1.25 0
-4.375 -9.375 0
-3.75 -9.375 0
-4.375 -8.75 0
-3.75 -8.75 0
-3.75 -9.375 0
-3.125 -9.375 0
-3.75 -8.75 0
-3.125 -8.75 0
-3.125 -9.375 0
-2.5 -9.375 0
-3.125 -8.75 0
-2.5 -8.75 0
-8.75 1.25 0
-8.125 1.25 0
-8.75 1.875 0
-8.125 1.875 0
-8.125 1.25 0
-7.5 1.25 0
-8.125 1.875 0
-7.5 1.875 0
-8.75 1.875 0
-8.125 1.875 0
-8.75 2.5 0
-8.125 2.5 0
-8.125 1.875 0
-7.5 1.875 0
-8.125 2.5 0
-7.5 2.5 0
-8.75 -7.5 0
-8.125 -7.5 0
-8.75 -6.875 0
-8.125 -6.875 0
-8.125 -7.5 0
-7.5 -7.5 0
-8.125 -6.875 0
-7.5 -6.875 0
-8.75 -6.875 0
-8.125 -6.875 0
-8.75 -6.25 0
-8.125 -6.25 0
-8.125 -6.875 0
-7.5 -6.875 0
-8.125 -6.25 0
-7.5 -6.25 0
-2.5 -9.375 0
-1.875 -9.375 0
-2.5 -8.75 0
-1.875 -8.75 0
-1.875 -9.375 0
-1.25 -9.375 0
-1.875 -8.75 0
-1.25 -8.75 0
-1.25 -9.375 0
-0.625 -9.375 0
-1.25 -8.75 0
-0.625 -8.75 0
-0.625 -9.375 0
0 -9.375 0
-0.625 -8.75 0
0 -8.75 0
-8.75 -6.25 0
-8.125 -6.25 0
-8.75 -5.625 0
-8.125 -5.625 0
-8.125 -6.25 0
-7.5 -6.25 0
-8.125 -5.625 0
-7.5 -5.625 0
-8.75 -5.625 0
-8.125 -5.625 0
-8.75 -5 0
-8.125 -5 0
-8.125 -5.625 0
-7.5 -5.625 0
-8.125 -5 0
-7.5 -5 0
-5 -8.75 0
-4.375 -8.75 0
-5 -8.125 0
-4.375 -8.125 0
-4.375 -8.75 0
-3.75 -8.75 0
-4.375 -8.125 0
-3.75 -8.125 0
-5 -8.125 0
-4.375 -8.125 0
-5 -7.5 0
-4.375 -7.5 0
-4.375 -8.125 0
-3.75 -8.125 0
-4.375 -7.5 0
-3.75 -7.5 0
-9.375 -4.375 0
-8.75 -4.375 0
-9.375 -3.75 0
-8.75 -3.75 0
-8.75 -8.75 0
-8.125 -8.75 0
-8.75 -8.125 0
-8.125 -8.125 0
-8.125 -8.75 0
-7.5 -8.75 0
-8.125 -8.125 0
-7.5 -8.125 0
-8.75 -8.125 0
-8.125 -8.125 0
-8.75 -7.5 0
-8.125 -7.5 0
-8.125 -8.125 0
-7.5 -8.125 0
-8.125 -7.5 0
-7.5 -7.5 0
-9.375 -3.75 0
-8.75 -3.75 0
-9.375 -3.125 0
-8.75 -3.125 0
-9.375 -3.125 0
-8.75 -3.125 0
-9.375 -2.5 0
-8.75 -2.5 0
2.5 -8.75 0
3.125 -8.75 0
2.5 -8.125 0
3.125 -8.125 0
3.125 -8.75 0
3.75 -8.75 0
3.125 -8.125 0
3.75 -8.125 0
2.5 -8.125 0
3.125 -8.125 0
2.5 -7.5 0
3.125 -7.5 0
3.125 -8.125 0
3.75 -8.125 0
3.125 -7.5 0
3.75 -7.5 0
-9.375 -2.5 0
-8.75 -2.5 0
-9.375 -1.875 0
-8.75 -1.875 0
-9.375 -1.875 0
-8.75 -1.875 0
-9.375 -1.25 0
-8.75 -1.25 0
-8.75 2.5 0
-8.125 2.5 0
-8.75 3.125 0
-8.125 3.125 0
-8.125 2.5 0
-7.5 2.5 0
-8.125 3.125 0
-7.5 3.125 0
-8.75 3.125 0
-8.125 3.125 0
-8.75 3.75 0
-8.125 3.75 0
-8.125 3.125 0
-7.5 3.125 0
-8.125 3.75 0
-7.5 3.75 0
-9.375 -1.25 0
-8.75 -1.25 0
-9.375 -0.625 0
-8.75 -0.625 0
-9.375 -0.625 0
-8.75 -0.625 0
-9.375 0 0
-8.75 0 0
-8.75 -5 0
-8.125 -5 0
-8.75 -4.375 0
-8.125 -4.375 0
-8.125 -5 0
-7.5 -5 0
-8.125 -4.375 0
-7.5 -4.375 0
-8.75 -4.375 0
-8.125 -4.375 0
-8.75 -3.75 0
-8.125 -3.75 0
-8.125 -4.375 0
-7.5 -4.375 0
-8.125 -3.75 0
-7.5 -3.75 0
0 -9.375 0
0.625 -9.375 0
0 -8.75 0
0.625 -8.75 0
1.25 -10 0
1.875 -10 0
1.25 -9.375 0
1.875 -9.375 0
1.875 -10 0
2.5 -10 0
1.875 -9.375 0
2.5 -9.375 0
1.25 -9.375 0
1.875 -9.375 0
1.25 -8.75 0
1.875 -8.75 0
-10 3.75 0
-9.375 3.75 0
-10 4.375 0
-9.375 4.375 0
-9.375 3.75 0
-8.75 3.75 0
-9.375 4.375 0
-8.75 4.375 0
-10 4.375 0
-9.375 4.375 0
-10 5 0
-9.375 5 0
-9.375 4.375 0
-8.75 4.375 0
-9.375 5 0
-8.75 5 0
-8.75 3.75 0
-8.125 3.75 0
-8.75 4.375 0
-8.125 4.375 0
-8.125 3.75 0
-7.5 3.75 0
-8.125 4.375 0
-7.5 4.375 0
-8.75 4.375 0
-8.125 4.375 0
-8.75 5 0
-8.125 5 0
-8.125 4.375 0
-7.5 4.375 0
-8.125 5 0
-7.5 5 0
6.25 -10 0
6.875 -10 0
6.25 -9.375 0
6.875 -9.375 0
6.875 -10 0
7.5 -10 0
6.875 -9.375 0
7.5 -9.375 0
6.25 -9.375 0
6.875 -9.375 0
6.25 -8.75 0
6.875 -8.75 0
6.875 -9.375 0
7.5 -9.375 0
6.875 -8.75 0
7.5 -8.75 0
-9.375 0 0
-8.75 0 0
-9.375 0.625 0
-8.75 0.625 0
5 -8.75 0
5.625 -8.75 0
5 -8.125 0
5.625 -8.125 0
5.625 -8.75 0
6.25 -8.75 0
5.625 -8.125 0
6.25 -8.125 0
5 -8.125 0
5.625 -8.125 0
5 -7.5 0
5.625 -7.5 0
5.625 -8.125 0
6.25 -8.125 0
5.625 -7.5 0
6.25 -7.5 0
-10 1.25 0
-9.375 1.25 0
-10 1.875 0
-9.375 1.875 0
-9.375 1.25 0
-8.75 1.25 0
-9.375 1.875 0
-8.75 1.875 0
-10 1.875 0
-9.375 1.875 0
-10 2.5 0
-9.375 2.5 0
5 -10 0
5.625 -10 0
5 -9.375 0
5.625 -9.375 0
5.625 -10 0
6.25 -10 0
5.625 -9.375 0
6.25 -9.375 0
5.625 -9.375 0
6.25 -9.375 0
5.625 -8.75 0
6.25 -8.75 0
3.75 -10 0
4.375 -10 0
3.75 -9.375 0
4.375 -9.375 0
4.375 -10 0
5 -10 0
4.375 -9.375 0
5 -9.375 0
3.75 -9.375 0
4.375 -9.375 0
3.75 -8.75 0
4.375 -8.75 0
4.375 -9.375 0
5 -9.375 0
4.375 -8.75 0
5 -8.75 0
-10 -10 0
-9.6875 -10 0
-10 -9.6875 0
-9.6875 -9.6875 0
-9.6875 -10 0
-9.375 -10 0
-9.6875 -9.6875 0
-9.375 -9.6875 0
-10 -9.6875 0
-9.6875 -9.6875 0
-10 -9.375 0
-9.6875 -9.375 0
-9.6875 -9.6875 0
-9.375 -9.6875 0
-9.6875 -9.375 0
-9.375 -9.375 0
-9.375 -10 0
-9.0625 -10 0
-9.375 -9.6875 0
-9.0625 -9.6875 0
-9.0625 -10 0
-8.75 -10 0
-9.0625 -9.6875 0
-8.75 -9.6875 0
-9.375 -9.6875 0
-9.0625 -9.6875 0
-9.375 -9.375 0
-9.0625 -9.375 0
-9.0625 -9.6875 0
-8.75 -9.6875 0
-9.0625 -9.375 0
-8.75 -9.375 0
-10 -9.375 0
-9.6875 -9.375 0
-10 -9.0625 0
-9.6875 -9.0625 0
-9.6875 -9.375 0
-9.375 -9.375 0
-9.6875 -9.0625 0
-9.375 -9.0625 0
-10 -9.0625 0
-9.6875 -9.0625 0
-10 -8.75 0
-9.6875 -8.75 0
-9.6875 -9.0625 0
-9.375 -9.0625 0
-9.6875 -8.75 0
-9.375 -8.75 0
-9.375 -9.375 0
-9.0625 -9.375 0
-9.375 -9.0625 0
-9.0625 -9.0625 0
-9.0625 -9.375 0
-8.75 -9.375 0
[...]
POINT_DATA 1744
SCALARS V double 1
LOOKUP_TABLE default
0.0168486 -0.00798608 -0.0258852 0.00730093 -0.00798608 0 0.00730093 0 -0.0258852 0.00730093 0 0 0.00730093 0 0 0 -0.00615584 -0.000579948 0.00421039 0.00149099 -0.0038522 0.00162733 -0.0166601 -0.00349604 0.00149099 0.00900909 0.009435 0.00756323 0.00900909 0.0222371 0.00756323 0.00634193 0.009435 0.00756323 0.0168486 0.00443127 0.00756323 0.00634193 0.00443127 -0.00798608 0.0222371 0.00416798 0.00634193 0.00490482 0.00416798 0 0.00490482 0 0.00634193 0.00490482 -0.00798608 -0.00399304 0.00490482 0 -0.00399304 0 -0.00349604 0.00671754 0.0603824 0.0294579 0.00671754 0.0168486 0.0294579 -0.00451829 0.0603824 0.0294579 0.121993 0.0480537 0.0294579 -0.00451829 0.0480537 -0.0258852 -0.482236 0 0.00416798 0 0.00689277 0.00421039 0.00162733 0.00553012 0.00421039 0.00149099 0.00553012 0.009435 0.00162733 0.00553012 -0.00349604 0.00671754 0.00553012 0.009435 0.00671754 0.0168486 0.121993 0.0480537 0.0609963 0.0240269 0.0480537 -0.0258852 0.0240269 -0.0129426 0.0609963 0.0240269 0 0 0.0240269 -0.0129426 0 0 0.0169778 0.180008 0.0127751 0.0788792 0.180008 0.22069 0.0788792 0.146788 0.0127751 0.0788792 0.00900909 0.0156231 0.0788792 0.146788 0.0156231 0.0222371 0.0366075 0.0338772 -0.00545465 -0.00615584 0.0338772 0.0307031 -0.00615584 -0.00393922 0.0307031 0.0330286 -0.00393922 -0.000579948 -0.000360102 -0.0127948 -0.013256 -0.00402481 -0.0127948 -0.00323681 -0.00402481 0.000738826 -0.013256 -0.00402481 -0.00414957 0.000260019 -0.00402481 0.000738826 0.000260019 0.00689277 -0.000579948 0.00257799 -0.000115729 0.00506727 0.00257799 0.0169778 0.00506727 0.0127751 -0.000115729 0.00506727 0.00149099 0.00525004 0.00506727 0.0127751 0.00525004 0.00900909 0.0363917 -0.0046457 0.0333272 -0.0038522 -0.0166601 -0.0105986 -0.0532293 -0.0134483 -0.0105986 -0.00349604 -0.0134483 0.0284432 -0.0532293 -0.0134483 -0.0947481 -0.0171828 -0.0134483 0.0284432 -0.0171828 0.0603824 0.0333272 -0.0038522 0.0321185 -0.0101261 0.0321185 -0.0101261 0.0369665 -0.0166601 -0.00323681 -0.00545465 0.000738826 -0.000155212 -0.00545465 -0.00615584 -0.000155212 -0.00142933 0.000738826 -0.000155212 0.00689277 0.00555158 -0.000155212 -0.00142933 0.00555158 0.00421039 0.0308476 -0.507441 0.180008 0.22069 0.22069 -0.151412 0.146788 -0.0459487 -0.151412 -0.482236 -0.0459487 -0.239034 0.146788 -0.0459487 0.0222371 0.0132025 -0.0459487 -0.239034 0.0132025 0.00416798 -0.0947481 -0.0171828 -0.422775 -0.165794 -0.0171828 0.0603824 -0.165794 0.0911876 -0.422775 -0.165794 -0.750801 -0.314404 -0.165794 0.0911876 -0.314404 0.121993 -0.00414957 0.000260019 -0.0046457 -0.000377165 0.000260019 0.00689277 -0.000377165 0.00426005 -0.0046457 -0.000377165 -0.0038522 -0.00147792 -0.000377165 0.00426005 -0.00147792 0.00162733 3.48254 1.36587 2.86066 1.09064 1.36587 -0.750801 1.09064 -0.679377 2.86066 1.09064 2.23878 0.815413 1.09064 -0.679377 0.815413 -0.607953 -0.734346 0.836516 -0.151412 -0.482236 2.23878 1.6169 0.836516 0.719999 1.6169 0.995012 0.719999 0.37313 0.836516 0.719999 -0.482236 -0.241118 0.719999 0.37313 -0.241118 0 -0.750801 -0.314404 -0.679377 -0.293941 -0.314404 0.121993 -0.293941 0.0914945 -0.679377 -0.293941 -0.607953 -0.273478 -0.293941 0.0914945 -0.273478 0.0609963 2.23878 0.815413 1.6169 0.656459 0.815413 -0.607953 0.656459 -0.303976 1.6169 0.656459 0.995012 0.497506 0.656459 -0.303976 0.497506 0 -0.607953 -0.273478 -0.303976 -0.136739 -0.273478 0.0609963 -0.136739 0.0304982 -0.303976 -0.136739 0 0 -0.136739 0.0304982 0 0 0.0194146 0.0404089 0.00952726 0.0150064 0.0404089 0.0456661 0.0150064 0.0241245 0.00952726 0.0150064 -0.000360102 -0.00657746 0.0150064 0.0241245 -0.00657746 -0.0127948 0.0330286 -0.0181654 0.0152451 0.0336681 -0.0181654 -0.0343737 0.0336681 0.033063 0.0152451 0.0336681 -0.000579948 0.000999023 0.0336681 0.033063 0.000999023 0.00257799 -0.0343737 -0.0593451 0.033063 0.0103209 -0.0593451 -0.0407616 0.0103209 -0.0118919 0.033063 0.0103209 0.00257799 0.00977792 0.0103209 -0.0118919 0.00977792 0.0169778 0.0456661 0.0427774 0.0241245 0.0224808 0.0427774 0.0383429 0.0224808 0.020588 0.0241245 0.0224808 -0.0127948 -0.00801581 0.0224808 0.020588 -0.00801581 -0.00323681 0.0369665 0.00963838 -0.0125355 0.01894 0.00963838 -0.0166601 0.01894 -0.0349447 -0.0125355 0.01894 -0.0325021 0.00437522 0.01894 -0.0349447 0.00437522 -0.0532293 0.100318 0.0965299 0.0374192 0.0366075 0.0965299 0.0927223 0.0366075 0.0352569 0.0927223 0.0888413 0.0352569 0.0338772 -0.0325021 0.00437522 -0.0674382 -0.0338841 0.00437522 -0.0532293 -0.0338841 -0.0739887 -0.0674382 -0.0338841 -0.13787 -0.116309 -0.0338841 -0.0739887 -0.116309 -0.0947481 0.0194146 0.00952725 0.040461 0.0149198 0.00952725 -0.000360102 0.0149198 -0.00680804 0.040461 0.0149198 0.0457683 0.0239531 0.0149198 -0.00680804 0.0239531 -0.013256 0.0888413 0.0852232 0.0338772 0.0320352 0.0852232 0.0805282 0.0320352 0.0307031 0.0805282 0.080299 0.0307031 0.0278917 0.080299 0.0484111 0.0278917 0.0330286 0.0457683 0.0239531 0.0429371 0.0222149 0.0239531 -0.013256 0.0222149 -0.00870278 0.0429371 0.0222149 0.0385383 0.0202682 0.0222149 -0.00870278 0.0202682 -0.00414957 0.0383429 0.0374192 0.020588 0.0199932 0.0374192 0.0366075 0.0199932 0.0193527 0.020588 0.0199932 -0.00323681 -0.00434573 0.0199932 0.0193527 -0.00434573 -0.00545465 0.100316 0.0374165 0.0965239 0.0363917 0.0532375 0.0363261 0.0363261 0.0229267 0.0363261 0.0194146 0.0229267 0.00952726 0.0363261 0.0229267 0.0194146 0.00952725 0.0229267 0.00952726 0.00952725 -0.000360102 0.0965239 0.0363917 0.0927125 0.034823 0.0927125 0.034823 0.0888424 0.0333272 -0.0407616 -0.00495701 -0.0118919 0.0467679 -0.00495701 0.0308476 0.0467679 0.105428 -0.0118919 0.0467679 0.0169778 0.0984927 0.0467679 0.105428 0.0984927 0.180008 0.0888424 0.0333272 0.085209 0.0324103 0.085209 0.0324103 0.0805132 0.0321185 -0.13787 -0.116309 -0.595582 -0.427172 -0.116309 -0.0947481 -0.427172 -0.258761 -0.595582 -0.427172 -1.0533 -0.738035 -0.427172 -0.258761 -0.738035 -0.422775 0.0805132 0.0321185 0.0803063 0.0306406 0.0803063 0.0306406 0.0484115 0.0369665 0.0385383 0.0202682 0.0374165 0.0199445 0.0202682 -0.00414957 0.0199445 -0.00439764 0.0374165 0.0199445 0.0363917 0.0196054 0.0199445 -0.00439764 0.0196054 -0.0046457 0.0484111 0.191025 0.0330286 -0.0181654 5.34819 5.03725 0.313594 0.54911 5.03725 4.72631 0.54911 0.458186 0.313594 0.54911 -0.0343737 -0.0593451 4.10443 1.52557 3.79349 1.97489 1.52557 -1.0533 1.97489 0.156288 3.79349 1.97489 3.48254 2.42421 1.97489 0.156288 2.42421 1.36587 -1.0533 -0.738035 0.156288 -0.21525 -0.738035 -0.422775 -0.21525 -0.586788 0.156288 -0.21525 1.36587 0.307535 -0.21525 -0.586788 0.307535 -0.750801 2.86066 2.54972 1.06316 1.3004 2.54972 2.23878 1.3004 1.53765 1.06316 1.3004 -0.734346 0.051085 1.3004 1.53765 0.051085 0.836516 0.0484115 0.0369665 0.191128 -0.0125355 -0.507441 -0.620894 -0.143376 -0.293127 -0.620894 -0.734346 -0.293127 -0.442879 -0.143376 -0.293127 0.22069 0.0346389 -0.293127 -0.442879 0.0346389 -0.151412 5.34819 0.314296 5.03725 0.554011 0.314296 -0.0325021 0.554011 -0.0674382 5.03725 0.554011 4.72631 0.419606 3.48254 3.1716 1.34962 1.23132 3.1716 2.86066 1.23132 1.06316 1.23132 1.06316 -0.620894 -0.734346 4.10443 3.79349 -0.0843227 -0.0373467 3.79349 3.48254 -0.0373467 1.34962 -0.0843227 -0.0373467 0.0308476 -0.217956 -0.0373467 1.34962 -0.217956 -0.507441 10.9451 10.7897 10.7897 5.546 10.7897 10.6342 5.546 3.312 10.7897 5.546 10.6342 3.312 5.546 3.312 3.312 0.231639 10.6342 10.4787 3.312 3.11225 10.4787 10.3233 3.11225 3.18332 3.312 3.11225 0.231639 0.0279449 3.11225 3.18332 0.0279449 0.117017 10.6342 3.312 10.4787 3.11225 3.312 0.231639 3.11225 0.0279449 10.4787 3.11225 10.3233 3.18332 3.11225 0.0279449 3.18332 0.117017 0.231639 0.0279449 0.0279449 -0.292753 0.0279449 0.117017 -0.292753 0.0851274 0.0279449 -0.292753 0.117017 0.0851274 -0.292753 0.0851274 0.0851274 0.0532375 10.3233 10.1678 3.18332 3.12928 10.1678 10.0123 3.12928 3.06381 3.18332 3.12928 0.117017 0.103674 3.12928 3.06381 0.103674 0.0903313 10.0123 9.85684 3.06381 3.01915 9.85684 9.70137 3.01915 2.97567 3.06381 3.01915 0.0903313 0.068386 3.01915 2.97567 0.068386 0.0464408 0.0464408 0.132449 0.0329277 -0.105178 0.132449 0.113451 -0.105178 -0.0781646 0.0329277 -0.105178 0.0194146 0.0299118 -0.105178 -0.0781646 0.0299118 0.0404089 0.113451 0.114216 -0.0781646 -0.0779753 0.114216 0.111729 -0.0779753 -0.0736361 -0.0781646 -0.0779753 0.0404089 0.0430375 -0.0779753 -0.0736361 0.0430375 0.0456661 10.3233 3.18332 10.1678 3.12928 3.18332 0.117017 3.12928 0.103674 10.1678 3.12928 10.0123 3.06381 3.12928 0.103674 3.06381 0.0903313 0.111729 0.109925 -0.0736361 -0.0725765 0.109925 0.108075 -0.0725765 -0.0722449 -0.0736361 -0.0725765 0.0456661 0.0442217 -0.0725765 -0.0722449 0.0442217 0.0427774 10.0123 3.06381 9.85684 3.01915 3.06381 0.0903313 3.01915 0.068387 9.85684 3.01915 9.70137 2.97567 3.01915 0.068387 2.97567 0.0464427 0.108075 0.106117 -0.0722449 -0.0717761 0.106117 0.104129 -0.0717761 -0.0710989 -0.0722449 -0.0717761 0.0427774 0.0405602 -0.0717761 -0.0710989 0.0405602 0.0383429 9.70137 9.5459 2.97567 2.91308 9.5459 9.39043 2.91308 2.86818 2.97567 2.91308 0.0464408 0.132449 2.91308 2.86818 0.132449 0.113451 9.39043 9.23496 2.86818 2.81937 9.23496 9.07949 2.81937 2.77182 2.86818 2.81937 0.113451 0.114216 2.81937 2.77182 0.114216 0.111729 0.0464427 0.0329286 0.13245 -0.105163 0.0329286 0.0194146 -0.105163 0.0299378 0.13245 -0.105163 0.113452 -0.0781342 -0.105163 0.0299378 -0.0781342 0.040461 0.113452 -0.0781342 0.114217 -0.0779298 -0.0781342 0.040461 -0.0779298 0.0431146 0.114217 -0.0779298 0.11173 -0.0735752 -0.0779298 0.0431146 -0.0735752 0.0457683 9.07949 8.92402 2.77182 2.72437 8.92402 8.76855 2.72437 2.67704 2.77182 2.72437 0.111729 0.109925 2.72437 2.67704 0.109925 0.108075 8.76855 8.61308 2.67704 2.62972 8.61308 8.45761 2.62972 2.58235 2.67704 2.62972 0.108075 0.106117 2.62972 2.58235 0.106117 0.104129 0.11173 -0.0735752 0.109927 -0.0725 -0.0735752 0.0457683 -0.0725 0.0443527 0.109927 -0.0725 0.108077 -0.0721535 -0.0725 0.0443527 -0.0721535 0.0429371 0.108077 -0.0721535 0.106118 -0.0716661 -0.0721535 0.0429371 -0.0716661 0.0407377 0.106118 -0.0716661 0.10413 -0.0709896 -0.0716661 0.0407377 -0.0709896 0.0385383 9.70137 2.97567 9.5459 2.91307 2.97567 0.0464427 2.91307 0.13245 9.5459 2.91307 9.39043 2.86817 2.91307 0.13245 2.86817 0.113452 0.104129 0.102226 -0.0710989 -0.0698204 0.102226 0.100318 -0.0698204 -0.0682883 -0.0710989 -0.0698204 0.0383429 0.0378811 -0.0698204 -0.0682883 0.0378811 0.0374192 9.39043 2.86817 9.23496 2.81936 2.86817 0.113452 2.81936 0.114217 9.23496 2.81936 9.07949 2.77181 2.81936 0.114217 2.77181 0.11173 0.117017 0.103674 0.0851274 0.074228 0.103674 0.0903313 0.074228 0.0633287 0.0851274 0.074228 0.0532375 0.0447818 0.074228 0.0633287 0.0447818 0.0363261 9.07949 2.77181 8.92402 2.72435 2.77181 0.11173 2.72435 0.109927 8.92402 2.72435 8.76855 2.67703 2.72435 0.109927 2.67703 0.108077 0.0903313 0.068386 0.0633287 0.0481282 0.068386 0.0464408 0.0481282 0.0329277 0.0633287 0.0481282 0.0363261 0.0278703 0.0481282 0.0329277 0.0278703 0.0194146 8.76855 2.67703 8.61308 2.6297 2.67703 0.108077 2.6297 0.106118 8.61308 2.6297 8.45761 2.58234 2.6297 0.106118 2.58234 0.10413 0.117017 0.0851274 0.103674 0.0742281 0.0851274 0.0532375 0.0742281 0.0447818 0.103674 0.0742281 0.0903313 0.0633287 0.0742281 0.0447818 0.0633287 0.0363261 8.45761 8.30214 2.58235 2.53489 8.30214 8.14666 2.53489 2.48738 2.58235 2.53489 0.104129 0.102226 2.53489 2.48738 0.102226 0.100318 8.14666 7.99119 2.48738 2.43987 7.99119 7.83572 2.43987 2.39238 2.48738 2.43987 0.100318 0.0984218 2.43987 2.39238 0.0984218 0.0965299 0.0903313 0.0633287 0.068387 0.0481287 0.0633287 0.0363261 0.0481287 0.0278703 0.068387 0.0481287 0.0464427 0.0329286 0.0481287 0.0278703 0.0329286 0.0194146 5.65913 5.50366 2.92508 2.87799 5.50366 5.34819 2.87799 2.83089 2.92508 2.87799 0.191025 0.252309 2.87799 2.83089 0.252309 0.313594 7.83572 7.68025 2.39238 2.3449 7.68025 7.52478 2.3449 2.29743 2.39238 2.3449 0.0965299 0.0946306 2.3449 2.29743 0.0946306 0.0927223 7.52478 7.36931 2.29743 2.24995 7.36931 7.21384 2.24995 2.20249 2.29743 2.24995 0.0927223 0.0907655 2.24995 2.20249 0.0907655 0.0888413 0.191025 0.252309 0.0864296 0.11302 0.252309 0.313594 0.11302 0.13961 0.0864296 0.11302 -0.0181654 -0.0262695 0.11302 0.13961 -0.0262695 -0.0343737 0.54911 0.503648 0.244882 0.226797 0.503648 0.458186 0.226797 0.208712 0.244882 0.226797 -0.0593451 -0.0500534 0.226797 0.208712 -0.0500534 -0.0407616 7.21384 7.05837 2.20249 2.15504 7.05837 6.9029 2.15504 2.1076 2.20249 2.15504 0.0888413 0.087096 2.15504 2.1076 0.087096 0.0852232 6.9029 6.74743 2.1076 2.06 6.74743 6.59196 2.06 2.01286 2.1076 2.06 0.0852232 0.082592 2.06 2.01286 0.082592 0.0805282 0.10413 -0.0709896 0.102224 -0.0697583 -0.0709896 0.0385383 -0.0697583 0.0379774 0.102224 -0.0697583 0.100316 -0.0682926 -0.0697583 0.0379774 -0.0682926 0.0374165 4.72631 4.57084 2.59225 2.4401 4.57084 4.41537 2.4401 2.28795 2.59225 2.4401 0.458186 0.309357 2.4401 2.28795 0.309357 0.160528 6.59196 6.43649 2.01286 1.96448 6.43649 6.28102 1.96448 1.92048 2.01286 1.96448 0.0805282 0.0816046 1.96448 1.92048 0.0816046 0.080299 6.28102 6.12555 1.92048 1.86716 6.12555 5.97007 1.86716 1.80208 1.92048 1.86716 0.080299 0.0669523 1.86716 1.80208 0.0669523 0.0484111 4.41537 4.2599 2.28795 2.149 4.2599 4.10443 2.149 2.01005 2.28795 2.149 0.160528 0.0381027 2.149 2.01005 0.0381027 -0.0843227 0.458186 0.309357 0.208712 0.143249 0.309357 0.160528 0.143249 0.0777855 0.208712 0.143249 -0.0407616 -0.0228593 0.143249 0.0777855 -0.0228593 -0.00495701 8.45761 2.58234 8.30214 2.53488 2.58234 0.10413 2.53488 0.102224 8.30214 2.53488 8.14666 2.48738 2.53488 0.102224 2.48738 0.100316 0.160528 0.0381027 0.0777855 0.025524 0.0381027 -0.0843227 0.025524 -0.0267376 0.0777855 0.025524 -0.00495701 0.0129453 0.025524 -0.0267376 0.0129453 0.0308476 8.14666 2.48738 7.99119 2.43989 2.48738 0.100316 2.43989 0.0984182 7.99119 2.43989 7.83572 2.3924 2.43989 0.0984182 2.3924 0.0965239 5.65913 2.92513 5.50366 2.87819 2.92513 0.191128 2.87819 0.252712 5.50366 2.87819 5.34819 2.83124 2.87819 0.252712 2.83124 0.314296 7.83572 2.3924 7.68025 2.34493 2.3924 0.0965239 2.34493 0.0946219 7.68025 2.34493 7.52478 2.29746 2.34493 0.0946219 2.29746 0.0927125 0.191128 0.0892963 0.252712 0.115097 0.0892963 -0.0125355 0.115097 -0.0225188 0.252712 0.115097 0.314296 0.140897 0.115097 -0.0225188 0.140897 -0.0325021 7.52478 2.29746 7.36931 2.25 2.29746 0.0927125 2.25 0.0907653 7.36931 2.25 7.21384 2.20253 2.25 0.0907653 2.20253 0.0888424 0.554011 0.243286 0.486808 0.192077 0.243286 -0.0674382 0.192077 -0.102654 0.486808 0.192077 0.419606 0.140868 0.192077 -0.102654 0.140868 -0.13787 7.21384 2.20253 7.05837 2.15505 2.20253 0.0888424 2.15505 0.0870936 7.05837 2.15505 6.9029 2.10758 2.15505 0.0870936 2.10758 0.085209 1.34962 1.29047 0.421091 0.363151 1.29047 1.23132 0.363151 0.305211 0.421091 0.363151 -0.507441 -0.564168 0.363151 0.305211 -0.564168 -0.620894 6.9029 2.10758 6.74743 2.05994 2.10758 0.085209 2.05994 0.0825767 6.74743 2.05994 6.59196 2.01275 2.05994 0.0825767 2.01275 0.0805132 4.72631 2.57296 4.57084 2.37242 2.57296 0.419606 2.37242 0.17401 4.57084 2.37242 4.41537 2.17189 2.37242 0.17401 2.17189 -0.0715852 6.59196 2.01275 6.43649 1.9643 2.01275 0.0805132 1.9643 0.0816029 6.43649 1.9643 6.28102 1.92021 1.9643 0.0816029 1.92021 0.0803063 0.419606 0.140868 0.17401 -0.096358 0.140868 -0.13787 -0.096358 -0.366726 0.17401 -0.096358 -0.0715852 -0.333584 -0.096358 -0.366726 -0.333584 -0.595582 6.28102 1.92021 6.12555 1.86679 1.92021 0.0803063 1.86679 0.0669478 6.12555 1.86679 5.97007 1.80169 1.86679 0.0669478 1.80169 0.0484115 4.41537 2.17189 4.2599 2.49344 2.17189 -0.0715852 2.49344 0.72699 4.2599 2.49344 4.10443 2.815 2.49344 0.72699 2.815 1.52557 5.97007 5.8146 1.80208 1.86251 5.8146 5.65913 1.86251 2.92508 1.80208 1.86251 0.0484111 0.198084 1.86251 2.92508 0.198084 0.191025 -0.0715852 -0.333584 0.72699 -0.0487242 -0.333584 -0.595582 -0.0487242 -0.824439 0.72699 -0.0487242 1.52557 0.236135 -0.0487242 -0.824439 0.236135 -1.0533 5.97007 1.80169 5.8146 1.86198 1.80169 0.0484115 1.86198 0.198175 5.8146 1.86198 5.65913 2.92513 1.86198 0.198175 2.92513 0.191128 
