# vtk DataFile Version 3.0
#This file was generated by the deal.II library on 2015/5/12 at 16: 3:49
ASCII
DATASET UNSTRUCTURED_GRID

POINTS 2692 double
0 0 0
5 0 0
0 5 0
5 5 0
5 0 0
10 0 0
5 5 0
10 5 0
0 5 0
5 5 0
0 10 0
5 10 0
5 5 0
10 5 0
5 10 0
10 10 0
0 -5 0
2.5 -5 0
0 -2.5 0
2.5 -2.5 0
2.5 -5 0
5 -5 0
2.5 -2.5 0
5 -2.5 0
0 -2.5 0
2.5 -2.5 0
0 0 0
2.5 0 0
2.5 -2.5 0
5 -2.5 0
2.5 0 0
5 0 0
5 -5 0
7.5 -5 0
5 -2.5 0
7.5 -2.5 0
7.5 -5 0
10 -5 0
7.5 -2.5 0
10 -2.5 0
5 -2.5 0
7.5 -2.5 0
5 0 0
7.5 0 0
7.5 -2.5 0
10 -2.5 0
7.5 0 0
10 0 0
-5 0 0
-2.5 0 0
-5 2.5 0
-2.5 2.5 0
-2.5 0 0
0 0 0
-2.5 2.5 0
0 2.5 0
-5 2.5 0
-2.5 2.5 0
-5 5 0
-2.5 5 0
-2.5 2.5 0
0 2.5 0
-2.5 5 0
0 5 0
-5 -5 0
-2.5 -5 0
-5 -2.5 0
-2.5 -2.5 0
-2.5 -5 0
0 -5 0
-2.5 -2.5 0
0 -2.5 0
-5 -2.5 0
-2.5 -2.5 0
-5 0 0
-2.5 0 0
-2.5 -2.5 0
0 -2.5 0
-2.5 0 0
0 0 0
-5 5 0
-2.5 5 0
-5 7.5 0
-2.5 7.5 0
-2.5 5 0
0 5 0
-2.5 7.5 0
0 7.5 0
-5 7.5 0
-2.5 7.5 0
-5 10 0
-2.5 10 0
-2.5 7.5 0
0 7.5 0
-2.5 10 0
0 10 0
2.5 -7.5 0
3.75 -7.5 0
2.5 -6.25 0
3.75 -6.25 0
3.75 -7.5 0
5 -7.5 0
3.75 -6.25 0
5 -6.25 0
2.5 -6.25 0
3.75 -6.25 0
2.5 -5 0
3.75 -5 0
3.75 -6.25 0
5 -6.25 0
3.75 -5 0
5 -5 0
-7.5 -7.5 0
-6.25 -7.5 0
-7.5 -6.25 0
-6.25 -6.25 0
-6.25 -7.5 0
-5 -7.5 0
-6.25 -6.25 0
-5 -6.25 0
-7.5 -6.25 0
-6.25 -6.25 0
-7.5 -5 0
-6.25 -5 0
-6.25 -6.25 0
-5 -6.25 0
-6.25 -5 0
-5 -5 0
0 -7.5 0
1.25 -7.5 0
0 -6.25 0
1.25 -6.25 0
1.25 -7.5 0
2.5 -7.5 0
1.25 -6.25 0
2.5 -6.25 0
0 -6.25 0
1.25 -6.25 0
0 -5 0
1.25 -5 0
1.25 -6.25 0
2.5 -6.25 0
1.25 -5 0
2.5 -5 0
-7.5 0 0
-6.25 0 0
-7.5 1.25 0
-6.25 1.25 0
-6.25 0 0
-5 0 0
-6.25 1.25 0
-5 1.25 0
-7.5 1.25 0
-6.25 1.25 0
-7.5 2.5 0
-6.25 2.5 0
-6.25 1.25 0
-5 1.25 0
-6.25 2.5 0
-5 2.5 0
-5 -7.5 0
-3.75 -7.5 0
-5 -6.25 0
-3.75 -6.25 0
-3.75 -7.5 0
-2.5 -7.5 0
-3.75 -6.25 0
-2.5 -6.25 0
-5 -6.25 0
-3.75 -6.25 0
-5 -5 0
-3.75 -5 0
-3.75 -6.25 0
-2.5 -6.25 0
-3.75 -5 0
-2.5 -5 0
5 -7.5 0
6.25 -7.5 0
5 -6.25 0
6.25 -6.25 0
5 -6.25 0
6.25 -6.25 0
5 -5 0
6.25 -5 0
6.25 -6.25 0
7.5 -6.25 0
6.25 -5 0
7.5 -5 0
-7.5 2.5 0
-6.25 2.5 0
-7.5 3.75 0
-6.25 3.75 0
-6.25 2.5 0
-5 2.5 0
-6.25 3.75 0
-5 3.75 0
-6.25 3.75 0
-5 3.75 0
-6.25 5 0
-5 5 0
-7.5 -5 0
-6.25 -5 0
-7.5 -3.75 0
-6.25 -3.75 0
-6.25 -5 0
-5 -5 0
-6.25 -3.75 0
-5 -3.75 0
-7.5 -3.75 0
-6.25 -3.75 0
-7.5 -2.5 0
-6.25 -2.5 0
-6.25 -3.75 0
-5 -3.75 0
-6.25 -2.5 0
-5 -2.5 0
-10 6.25 0
-8.75 6.25 0
-10 7.5 0
-8.75 7.5 0
8.75 -10 0
10 -10 0
8.75 -8.75 0
10 -8.75 0
-6.25 5 0
-5 5 0
-6.25 6.25 0
-5 6.25 0
-6.25 6.25 0
-5 6.25 0
-6.25 7.5 0
-5 7.5 0
-2.5 -7.5 0
-1.25 -7.5 0
-2.5 -6.25 0
-1.25 -6.25 0
-1.25 -7.5 0
0 -7.5 0
-1.25 -6.25 0
0 -6.25 0
-2.5 -6.25 0
-1.25 -6.25 0
-2.5 -5 0
-1.25 -5 0
-1.25 -6.25 0
0 -6.25 0
-1.25 -5 0
0 -5 0
-7.5 -2.5 0
-6.25 -2.5 0
-7.5 -1.25 0
-6.25 -1.25 0
-6.25 -2.5 0
-5 -2.5 0
-6.25 -1.25 0
-5 -1.25 0
-7.5 -1.25 0
-6.25 -1.25 0
-7.5 0 0
-6.25 0 0
-6.25 -1.25 0
-5 -1.25 0
-6.25 0 0
-5 0 0
-10 7.5 0
-8.75 7.5 0
-10 8.75 0
-8.75 8.75 0
-8.75 7.5 0
-7.5 7.5 0
-8.75 8.75 0
-7.5 8.75 0
-10 8.75 0
-8.75 8.75 0
-10 10 0
-8.75 10 0
-7.5 7.5 0
-6.25 7.5 0
-7.5 8.75 0
-6.25 8.75 0
-6.25 7.5 0
-5 7.5 0
-6.25 8.75 0
-5 8.75 0
-7.5 8.75 0
-6.25 8.75 0
-7.5 10 0
-6.25 10 0
-6.25 8.75 0
-5 8.75 0
-6.25 10 0
-5 10 0
7.5 -7.5 0
8.75 -7.5 0
7.5 -6.25 0
8.75 -6.25 0
7.5 -6.25 0
8.75 -6.25 0
7.5 -5 0
8.75 -5 0
8.75 -6.25 0
10 -6.25 0
8.75 -5 0
10 -5 0
-7.5 -8.125 0
-6.875 -8.125 0
-7.5 -7.5 0
-6.875 -7.5 0
-6.875 -8.125 0
-6.25 -8.125 0
-6.875 -7.5 0
-6.25 -7.5 0
0 -8.75 0
0.625 -8.75 0
0 -8.125 0
0.625 -8.125 0
0 -8.125 0
0.625 -8.125 0
0 -7.5 0
0.625 -7.5 0
0.625 -8.125 0
1.25 -8.125 0
0.625 -7.5 0
1.25 -7.5 0
1.25 -8.125 0
1.875 -8.125 0
1.25 -7.5 0
1.875 -7.5 0
1.875 -8.125 0
2.5 -8.125 0
1.875 -7.5 0
2.5 -7.5 0
-6.25 -8.125 0
-5.625 -8.125 0
-6.25 -7.5 0
-5.625 -7.5 0
-5.625 -8.125 0
-5 -8.125 0
-5.625 -7.5 0
-5 -7.5 0
-8.75 0 0
-8.125 0 0
-8.75 0.625 0
-8.125 0.625 0
-8.125 0 0
-7.5 0 0
-8.125 0.625 0
-7.5 0.625 0
-8.125 0.625 0
-7.5 0.625 0
-8.125 1.25 0
-7.5 1.25 0
-8.125 1.25 0
-7.5 1.25 0
-8.125 1.875 0
-7.5 1.875 0
-8.125 1.875 0
-7.5 1.875 0
-8.125 2.5 0
-7.5 2.5 0
-8.125 -7.5 0
-7.5 -7.5 0
-8.125 -6.875 0
-7.5 -6.875 0
-8.125 -6.875 0
-7.5 -6.875 0
-8.125 -6.25 0
-7.5 -6.25 0
-8.125 -6.25 0
-7.5 -6.25 0
-8.125 -5.625 0
-7.5 -5.625 0
-8.125 -5.625 0
-7.5 -5.625 0
-8.125 -5 0
-7.5 -5 0
-5 -8.125 0
-4.375 -8.125 0
-5 -7.5 0
-4.375 -7.5 0
-4.375 -8.125 0
-3.75 -8.125 0
-4.375 -7.5 0
-3.75 -7.5 0
-8.125 -8.125 0
-7.5 -8.125 0
-8.125 -7.5 0
-7.5 -7.5 0
-3.75 -8.125 0
-3.125 -8.125 0
-3.75 -7.5 0
-3.125 -7.5 0
-3.125 -8.125 0
-2.5 -8.125 0
-3.125 -7.5 0
-2.5 -7.5 0
-8.75 2.5 0
-8.125 2.5 0
-8.75 3.125 0
-8.125 3.125 0
-8.125 2.5 0
-7.5 2.5 0
-8.125 3.125 0
-7.5 3.125 0
-8.75 3.125 0
-8.125 3.125 0
-8.75 3.75 0
-8.125 3.75 0
-8.125 3.125 0
-7.5 3.125 0
-8.125 3.75 0
-7.5 3.75 0
-8.125 -5 0
-7.5 -5 0
-8.125 -4.375 0
-7.5 -4.375 0
-8.125 -4.375 0
-7.5 -4.375 0
-8.125 -3.75 0
-7.5 -3.75 0
1.875 -10 0
2.5 -10 0
1.875 -9.375 0
2.5 -9.375 0
-10 3.75 0
-9.375 3.75 0
-10 4.375 0
-9.375 4.375 0
-9.375 3.75 0
-8.75 3.75 0
-9.375 4.375 0
-8.75 4.375 0
-10 4.375 0
-9.375 4.375 0
-10 5 0
-9.375 5 0
2.5 -10 0
3.125 -10 0
2.5 -9.375 0
3.125 -9.375 0
2.5 -8.75 0
3.125 -8.75 0
2.5 -8.125 0
3.125 -8.125 0
2.5 -8.125 0
3.125 -8.125 0
2.5 -7.5 0
3.125 -7.5 0
3.125 -8.125 0
3.75 -8.125 0
3.125 -7.5 0
3.75 -7.5 0
5 -8.75 0
5.625 -8.75 0
5 -8.125 0
5.625 -8.125 0
5.625 -8.75 0
6.25 -8.75 0
5.625 -8.125 0
6.25 -8.125 0
5 -8.125 0
5.625 -8.125 0
5 -7.5 0
5.625 -7.5 0
5.625 -8.125 0
6.25 -8.125 0
5.625 -7.5 0
6.25 -7.5 0
-10 1.25 0
-9.375 1.25 0
-10 1.875 0
-9.375 1.875 0
-10 1.875 0
-9.375 1.875 0
-10 2.5 0
-9.375 2.5 0
5 -10 0
5.625 -10 0
5 -9.375 0
5.625 -9.375 0
5.625 -10 0
6.25 -10 0
5.625 -9.375 0
6.25 -9.375 0
5 -9.375 0
5.625 -9.375 0
5 -8.75 0
5.625 -8.75 0
-10 2.5 0
-9.375 2.5 0
-10 3.125 0
-9.375 3.125 0
-10 3.125 0
-9.375 3.125 0
-10 3.75 0
-9.375 3.75 0
-9.375 3.125 0
-8.75 3.125 0
-9.375 3.75 0
-8.75 3.75 0
-1.875 -8.75 0
-1.25 -8.75 0
-1.875 -8.125 0
-1.25 -8.125 0
-2.5 -8.125 0
-1.875 -8.125 0
-2.5 -7.5 0
-1.875 -7.5 0
-1.875 -8.125 0
-1.25 -8.125 0
-1.875 -7.5 0
-1.25 -7.5 0
-1.25 -8.75 0
-0.625 -8.75 0
-1.25 -8.125 0
-0.625 -8.125 0
-0.625 -8.75 0
0 -8.75 0
-0.625 -8.125 0
0 -8.125 0
-1.25 -8.125 0
-0.625 -8.125 0
-1.25 -7.5 0
-0.625 -7.5 0
-0.625 -8.125 0
0 -8.125 0
-0.625 -7.5 0
0 -7.5 0
-8.125 -3.75 0
-7.5 -3.75 0
-8.125 -3.125 0
-7.5 -3.125 0
-8.125 -3.125 0
-7.5 -3.125 0
-8.125 -2.5 0
-7.5 -2.5 0
-8.125 -2.5 0
-7.5 -2.5 0
-8.125 -1.875 0
-7.5 -1.875 0
-8.75 -1.875 0
-8.125 -1.875 0
-8.75 -1.25 0
-8.125 -1.25 0
-8.125 -1.875 0
-7.5 -1.875 0
-8.125 -1.25 0
-7.5 -1.25 0
-8.75 -1.25 0
-8.125 -1.25 0
-8.75 -0.625 0
-8.125 -0.625 0
-8.125 -1.25 0
-7.5 -1.25 0
-8.125 -0.625 0
-7.5 -0.625 0
-8.75 -0.625 0
-8.125 -0.625 0
-8.75 0 0
-8.125 0 0
-8.125 -0.625 0
-7.5 -0.625 0
-8.125 0 0
-7.5 0 0
4.375 -8.75 0
5 -8.75 0
4.375 -8.125 0
5 -8.125 0
3.75 -8.125 0
4.375 -8.125 0
3.75 -7.5 0
4.375 -7.5 0
4.375 -8.125 0
5 -8.125 0
4.375 -7.5 0
5 -7.5 0
-8.75 5 0
-8.125 5 0
-8.75 5.625 0
-8.125 5.625 0
-8.125 5 0
-7.5 5 0
-8.125 5.625 0
-7.5 5.625 0
-8.75 5.625 0
-8.125 5.625 0
-8.75 6.25 0
-8.125 6.25 0
6.875 -8.75 0
7.5 -8.75 0
6.875 -8.125 0
7.5 -8.125 0
6.25 -8.125 0
6.875 -8.125 0
6.25 -7.5 0
6.875 -7.5 0
6.875 -8.125 0
7.5 -8.125 0
6.875 -7.5 0
7.5 -7.5 0
6.25 -10 0
6.875 -10 0
6.25 -9.375 0
6.875 -9.375 0
6.875 -10 0
7.5 -10 0
6.875 -9.375 0
7.5 -9.375 0
6.25 -9.375 0
6.875 -9.375 0
6.25 -8.75 0
6.875 -8.75 0
6.875 -9.375 0
7.5 -9.375 0
6.875 -8.75 0
7.5 -8.75 0
-7.5 3.75 0
-6.875 3.75 0
-7.5 4.375 0
-6.875 4.375 0
-6.875 3.75 0
-6.25 3.75 0
-6.875 4.375 0
-6.25 4.375 0
-7.5 4.375 0
-6.875 4.375 0
-7.5 5 0
-6.875 5 0
-6.875 4.375 0
-6.25 4.375 0
-6.875 5 0
-6.25 5 0
-7.5 5 0
-6.875 5 0
-7.5 5.625 0
-6.875 5.625 0
-6.875 5 0
-6.25 5 0
-6.875 5.625 0
-6.25 5.625 0
-6.875 5.625 0
-6.25 5.625 0
-6.875 6.25 0
-6.25 6.25 0
6.25 -7.5 0
6.875 -7.5 0
6.25 -6.875 0
6.875 -6.875 0
6.875 -7.5 0
7.5 -7.5 0
6.875 -6.875 0
7.5 -6.875 0
6.25 -6.875 0
6.875 -6.875 0
6.25 -6.25 0
6.875 -6.25 0
6.875 -6.875 0
7.5 -6.875 0
6.875 -6.25 0
7.5 -6.25 0
-8.75 6.25 0
-8.125 6.25 0
-8.75 6.875 0
-8.125 6.875 0
-8.125 6.25 0
-7.5 6.25 0
-8.125 6.875 0
-7.5 6.875 0
-8.75 6.875 0
-8.125 6.875 0
-8.75 7.5 0
-8.125 7.5 0
-8.125 6.875 0
-7.5 6.875 0
-8.125 7.5 0
-7.5 7.5 0
-10 5 0
-9.375 5 0
-10 5.625 0
-9.375 5.625 0
-9.375 5 0
-8.75 5 0
-9.375 5.625 0
-8.75 5.625 0
-10 5.625 0
-9.375 5.625 0
-10 6.25 0
-9.375 6.25 0
-9.375 5.625 0
-8.75 5.625 0
-9.375 6.25 0
-8.75 6.25 0
7.5 -10 0
8.125 -10 0
7.5 -9.375 0
8.125 -9.375 0
8.125 -10 0
8.75 -10 0
8.125 -9.375 0
8.75 -9.375 0
7.5 -9.375 0
8.125 -9.375 0
7.5 -8.75 0
8.125 -8.75 0
8.125 -9.375 0
8.75 -9.375 0
8.125 -8.75 0
8.75 -8.75 0
-7.5 6.25 0
-6.875 6.25 0
-7.5 6.875 0
-6.875 6.875 0
-6.875 6.25 0
-6.25 6.25 0
-6.875 6.875 0
-6.25 6.875 0
-7.5 6.875 0
-6.875 6.875 0
-7.5 7.5 0
-6.875 7.5 0
-6.875 6.875 0
-6.25 6.875 0
-6.875 7.5 0
-6.25 7.5 0
7.5 -8.75 0
8.125 -8.75 0
7.5 -8.125 0
8.125 -8.125 0
8.125 -8.75 0
8.75 -8.75 0
8.125 -8.125 0
8.75 -8.125 0
7.5 -8.125 0
8.125 -8.125 0
7.5 -7.5 0
8.125 -7.5 0
8.125 -8.125 0
8.75 -8.125 0
8.125 -7.5 0
8.75 -7.5 0
8.75 -8.75 0
9.375 -8.75 0
8.75 -8.125 0
9.375 -8.125 0
9.375 -8.75 0
10 -8.75 0
9.375 -8.125 0
10 -8.125 0
8.75 -8.125 0
9.375 -8.125 0
8.75 -7.5 0
9.375 -7.5 0
9.375 -8.125 0
10 -8.125 0
9.375 -7.5 0
10 -7.5 0
-8.75 8.75 0
-8.125 8.75 0
-8.75 9.375 0
-8.125 9.375 0
-8.125 8.75 0
-7.5 8.75 0
-8.125 9.375 0
-7.5 9.375 0
-8.75 9.375 0
-8.125 9.375 0
-8.75 10 0
-8.125 10 0
-8.125 9.375 0
-7.5 9.375 0
-8.125 10 0
-7.5 10 0
8.75 -7.5 0
9.375 -7.5 0
8.75 -6.875 0
9.375 -6.875 0
9.375 -7.5 0
10 -7.5 0
9.375 -6.875 0
10 -6.875 0
8.75 -6.875 0
9.375 -6.875 0
8.75 -6.25 0
9.375 -6.25 0
9.375 -6.875 0
10 -6.875 0
9.375 -6.25 0
10 -6.25 0
-10 -10 0
-9.6875 -10 0
-10 -9.6875 0
-9.6875 -9.6875 0
-9.6875 -10 0
-9.375 -10 0
-9.6875 -9.6875 0
-9.375 -9.6875 0
-10 -9.6875 0
-9.6875 -9.6875 0
-10 -9.375 0
-9.6875 -9.375 0
-9.6875 -9.6875 0
[...]
POINT_DATA 2692
SCALARS V double 1
LOOKUP_TABLE default
0.0154525 -0.00700767 -0.0240668 0.00636795 -0.00700767 0 0.00636795 0 -0.0240668 0.00636795 0 0 0.00636795 0 0 0 0.00099123 0.0101334 0.00940697 0.00751346 0.0101334 0.0292639 0.00751346 0.00439094 0.00940697 0.00751346 0.0154525 0.00422243 0.00751346 0.00439094 0.00422243 -0.00700767 0.0292639 -0.0167081 0.00439094 0.00910252 -0.0167081 0 0.00910252 0 0.00439094 0.00910252 -0.00700767 -0.00350383 0.00910252 0 -0.00350383 0 -0.00205965 0.00760662 0.0506082 0.0320333 0.00760662 0.0154525 0.0320333 -0.00430712 0.0506082 0.0320333 0.0720329 0.0547959 0.0320333 -0.00430712 0.0547959 -0.0240668 0.00563303 0.00309095 0.00022785 0.005928 0.00309095 0.00099123 0.005928 0.00940697 0.00022785 0.005928 -0.00205965 0.00760662 0.005928 0.00940697 0.00760662 0.0154525 0.0720329 0.0547959 0.0259407 0.0305644 0.0547959 -0.0240668 0.0305644 -0.0120334 0.0259407 0.0305644 0 0 0.0305644 -0.0120334 0 0 0.0230446 0.119676 0.0230022 0.0925668 0.119676 0.0557752 0.0925668 0.123446 0.0230022 0.0925668 0.0101334 0.0196986 0.0925668 0.123446 0.0196986 0.0292639 -0.00388236 -0.00285835 -0.00318679 -0.0051178 -0.00285835 -0.000408253 -0.0051178 -0.000199785 -0.00318679 -0.0051178 -0.000901958 -0.000629007 -0.0051178 -0.000199785 -0.000629007 0.00563303 0.0016605 8.44006e-05 0.00279039 0.00457416 8.44006e-05 0.0230446 0.00457416 0.0230022 0.00279039 0.00457416 0.00099123 0.00556231 0.00457416 0.0230022 0.00556231 0.0101334 -0.0146433 -0.00861028 -0.0319945 -0.0116034 -0.00861028 -0.00205965 -0.0116034 0.0242743 -0.0319945 -0.0116034 -0.147073 -0.03301 -0.0116034 0.0242743 -0.03301 0.0506082 -0.000408253 0.000111446 -0.000199785 0.000137336 0.000111446 -0.00207545 0.000137336 0.00104117 -0.000199785 0.000137336 0.00563303 0.00436199 0.000137336 0.00104117 0.00436199 0.00309095 0.0557752 -0.188334 0.123446 -0.0473752 0.123446 -0.0473752 0.0292639 0.00627787 -0.0473752 -0.201287 0.00627787 -0.0167081 -0.147073 -0.03301 -0.398032 -0.156961 -0.03301 0.0506082 -0.156961 0.0613206 -0.156961 0.0613206 -0.292279 0.0720329 -0.000901958 -0.000629007 0.000709452 4.4455e-05 -0.000629007 0.00563303 4.4455e-05 0.00293044 0.000709452 4.4455e-05 -0.00151242 0.000409228 4.4455e-05 0.00293044 0.000409228 0.00022785 2.81807 1.10966 2.20545 0.849922 1.59282 0.980199 0.710471 0.367575 -0.292279 0.0720329 -0.291194 0.0469993 -0.291194 0.0469993 -0.240309 0.0259407 -0.00207545 -0.00198275 0.00104117 0.00212361 -0.00198275 0.0016605 0.00212361 0.00279039 0.00104117 0.00212361 0.00309095 0.00204109 0.00212361 0.00279039 0.00204109 0.00099123 -0.00151242 0.000409228 -0.00671406 -0.00344054 0.000409228 0.00022785 -0.00344054 -0.0009159 -0.00671406 -0.00344054 -0.0146433 -0.00861028 -0.00344054 -0.0009159 -0.00861028 -0.00205965 2.20545 0.849922 1.59282 0.662193 0.849922 -0.275715 0.662193 -0.140706 1.59282 0.662193 0.980199 0.367575 -0.275715 -0.240309 -0.140706 -0.140596 -0.240309 0.0259407 -0.140596 0.0129704 -0.140706 -0.140596 0 0 -0.140596 0.0129704 0 0 -0.239392 -0.0891288 -0.201287 -0.127135 -0.201287 -0.127135 -0.0167081 -0.00835406 -0.127135 0 -0.00835406 0 0.0330732 0.0244837 -0.00388236 -0.00337035 0.0244837 0.0280848 -0.00337035 -0.00285835 0.298922 0.307244 0.0279928 0.013687 0.0279928 0.013687 0.0016605 0.00087245 0.013687 0.0317435 0.00087245 8.44006e-05 0.0317435 0.034277 8.44006e-05 0.0115645 0.034277 0.0356725 0.0115645 0.0230446 0.0280848 0.0350779 -0.00285835 -0.0016333 0.0350779 0.0356302 -0.0016333 -0.000408253 0.297099 0.0188649 0.302119 -0.00193405 0.0188649 -0.0146433 -0.00193405 -0.0233189 -0.00193405 -0.0233189 0.000928749 -0.0319945 0.000928749 -0.0319945 -0.0341322 -0.0895339 -0.0341322 -0.0895339 -0.147895 -0.147073 0.0330461 -0.00388236 0.0243899 -0.00353457 0.0243899 -0.00353457 0.0279014 -0.00318679 0.0279014 -0.00318679 0.0348096 -0.00204437 0.0348096 -0.00204437 0.0354041 -0.000901958 0.0356302 0.00995133 -0.000408253 -0.000148403 0.00995133 0.0238756 -0.000148403 0.000111446 0.0569602 0.0330732 0.0330461 -0.00388236 0.0238756 0.0231619 0.000111446 -0.000982003 0.0231619 0.0205984 -0.000982003 -0.00207545 0.234064 -0.147895 0.250825 -0.255881 -0.147895 -0.147073 -0.255881 -0.280336 0.250825 -0.255881 0.347818 -0.320884 -0.255881 -0.280336 -0.320884 -0.398032 0.0354041 -0.000901958 0.00993883 -9.62534e-05 0.00993883 -9.62534e-05 0.0241669 0.000709452 4.96226 4.65594 1.9501 1.86443 4.04332 1.86742 3.73701 2.03958 1.86742 0.347818 2.03958 0.688139 3.73701 2.03958 3.4307 2.24367 4.65594 4.34963 1.86443 1.67709 0.354213 0.316396 0.0356725 0.0597927 0.0356725 0.0597927 0.0230446 0.0713602 0.0597927 0.081567 0.0713602 0.119676 0.256853 0.213574 -0.0341916 -0.132864 0.213574 0.245852 -0.132864 -0.179769 -0.0341916 -0.132864 0.0557752 -0.0662795 -0.132864 -0.179769 -0.0662795 -0.188334 5.26857 1.98176 4.96226 1.94038 4.96226 1.94038 4.65594 1.83315 3.4307 3.12438 1.4281 1.36559 3.12438 2.81807 1.36559 1.3358 1.4281 1.36559 0.256853 0.213574 4.65594 1.83315 4.34963 1.81037 4.34963 1.81037 4.04332 1.86742 1.81037 0.250825 1.86742 0.347818 0.293205 0.305029 0.00593543 0.0251714 0.0205984 0.00593543 -0.00207545 -0.0020291 0.00593543 0.0251714 -0.0020291 -0.00198275 0.305029 0.295021 0.0251714 0.0231103 0.295021 0.298922 0.0231103 0.0279928 0.0251714 0.0231103 -0.00198275 -0.000161128 0.0231103 0.0279928 -0.000161128 0.0016605 0.0241669 0.000709452 0.0237178 -0.000401485 0.0237178 -0.000401485 0.020814 -0.00151242 0.020814 -0.00151242 0.0050305 -0.00411324 0.293059 0.0050305 0.304643 0.0223738 0.0050305 -0.00411324 0.0223738 -0.00671406 0.304643 0.0223738 0.294273 0.0180776 0.0223738 -0.00671406 0.0180776 -0.0106787 0.294273 0.0180776 0.297099 0.0188649 0.0180776 -0.0106787 0.0188649 -0.0146433 0.308854 0.256853 0.0167349 -0.0341916 0.081567 0.0167349 0.119676 0.0877254 0.0167349 -0.0341916 0.0877254 0.0557752 1.05664 0.173114 1.08315 0.29926 0.173114 -0.35141 0.29926 -0.329778 1.08315 0.29926 1.10966 0.3154 0.460335 0.676055 -0.0639805 0.218332 -0.179769 -0.0639805 -0.188334 -0.213863 -0.0639805 0.218332 -0.213863 -0.239392 2.81807 2.51176 1.3358 1.37765 2.51176 2.20545 1.37765 1.44075 1.3358 1.37765 0.245852 0.460335 1.37765 1.44075 0.460335 0.676055 -0.398032 -0.2853 -0.381657 -0.352419 -0.2853 -0.156961 -0.352419 -0.22462 -0.381657 -0.352419 -0.35141 -0.400263 -0.352419 -0.22462 -0.400263 -0.292279 -0.35141 -0.400263 -0.329778 -0.434505 -0.400263 -0.292279 -0.434505 -0.291737 -0.434505 -0.291737 -0.381107 -0.291194 -0.188334 -0.213863 -0.117855 -0.169097 -0.213863 -0.239392 -0.169097 -0.220339 -0.117855 -0.169097 -0.0473752 -0.124331 -0.169097 -0.220339 -0.124331 -0.201287 1.10966 0.3154 0.979793 0.284444 0.3154 -0.306023 0.284444 -0.259235 0.979793 0.284444 0.849922 0.265075 0.284444 -0.259235 0.265075 -0.275715 3.4307 2.24367 3.12438 2.10377 2.24367 1.05664 2.10377 1.08315 3.12438 2.10377 2.81807 1.96387 2.10377 1.08315 1.96387 1.10966 2.20545 1.89913 1.44075 1.2962 1.89913 1.59282 1.2962 1.15165 1.44075 1.2962 0.676055 0.693263 1.2962 1.15165 0.693263 0.710471 -0.306023 -0.381107 -0.259235 -0.33844 -0.381107 -0.291194 -0.33844 -0.265752 -0.259235 -0.33844 -0.275715 -0.280526 -0.33844 -0.265752 -0.280526 -0.240309 0.676055 0.693263 0.218332 0.264501 0.693263 0.710471 0.264501 0.310671 0.218332 0.264501 -0.239392 -0.16426 0.264501 0.310671 -0.16426 -0.0891288 0.710471 0.539023 0.310671 0.247229 0.539023 0.367575 0.247229 0.183787 0.310671 0.247229 -0.0891288 -0.0445644 0.247229 0.183787 -0.0445644 0 0.662193 0.260744 0.514884 0.222266 0.260744 -0.140706 0.222266 -0.0703528 0.514884 0.222266 0.367575 0.183787 0.222266 -0.0703528 0.183787 0 -0.0891288 -0.0445644 -0.108132 -0.054066 -0.0445644 0 -0.054066 0 -0.108132 -0.054066 -0.127135 -0.0635676 -0.054066 0 -0.0635676 0 10.7822 10.629 10.629 9.08809 10.629 10.4759 9.08809 7.8099 10.629 9.08809 10.4759 7.8099 9.08809 7.8099 7.8099 5.64437 10.4759 10.3227 7.8099 6.969 10.3227 10.1696 6.969 6.51584 7.8099 6.969 5.64437 4.26333 6.969 6.51584 4.26333 3.57521 10.4759 7.8099 10.3227 6.969 7.8099 5.64437 6.969 4.26333 10.3227 6.969 10.1696 6.51584 6.969 4.26333 6.51584 3.57521 5.64437 4.26333 4.26333 2.55619 4.26333 3.57521 2.55619 1.72815 4.26333 2.55619 3.57521 1.72815 2.55619 1.72815 1.72815 0.841498 10.1696 10.0164 6.51584 6.29576 10.0164 9.86325 6.29576 6.17181 6.51584 6.29576 3.57521 3.30323 6.29576 6.17181 3.30323 3.20181 9.86325 9.71009 6.17181 6.07202 9.71009 9.55694 6.07202 5.97445 6.17181 6.07202 3.20181 3.14415 6.07202 5.97445 3.14415 3.09109 3.09109 3.03809 1.27739 1.25098 3.03809 2.98626 1.25098 1.22705 1.27739 1.25098 0.426156 0.410682 1.25098 1.22705 0.410682 0.39766 2.98626 2.936 1.22705 1.20861 2.936 2.88778 1.20861 1.18749 1.22705 1.20861 0.39766 0.391158 1.20861 1.18749 0.391158 0.390559 10.1696 6.51584 10.0164 6.29576 6.51584 3.57521 6.29576 3.30323 10.0164 6.29576 9.86325 6.17181 6.29576 3.30323 6.17181 3.20181 2.88778 2.8386 1.18749 1.16809 2.8386 2.7892 1.16809 1.1486 1.18749 1.16809 0.390559 0.387695 1.16809 1.1486 0.387695 0.385209 9.86325 6.17181 9.71009 6.07202 6.17181 3.20181 6.07202 3.14415 9.71009 6.07202 9.55694 5.97446 6.07202 3.14415 5.97446 3.0911 2.7892 2.74057 1.1486 1.12906 2.74057 2.69329 1.12906 1.11086 1.1486 1.12906 0.385209 0.379239 1.12906 1.11086 0.379239 0.371001 9.55694 9.40378 5.97445 5.87686 9.40378 9.25062 5.87686 5.78006 5.97445 5.87686 3.09109 3.03809 5.87686 5.78006 3.03809 2.98626 9.25062 9.09747 5.78006 5.68394 9.09747 8.94431 5.68394 5.58798 5.78006 5.68394 2.98626 2.936 5.68394 5.58798 2.936 2.88778 3.0911 1.27739 3.0381 1.25099 1.27739 0.426151 1.25099 0.410674 3.0381 1.25099 2.98627 1.22706 1.25099 0.410674 1.22706 0.397646 2.98627 1.22706 2.93602 1.20862 1.22706 0.397646 1.20862 0.391137 2.93602 1.20862 2.8878 1.1875 1.20862 0.391137 1.1875 0.390531 8.94431 8.79116 5.58798 5.4924 8.79116 8.638 5.4924 5.39688 5.58798 5.4924 2.88778 2.8386 5.4924 5.39688 2.8386 2.7892 8.638 8.48485 5.39688 5.3016 8.48485 8.33169 5.3016 5.20715 5.39688 5.3016 2.7892 2.74057 5.3016 5.20715 2.74057 2.69329 2.8878 1.1875 2.83862 1.16811 1.1875 0.390531 1.16811 0.38766 2.83862 1.16811 2.78923 1.14861 1.16811 0.38766 1.14861 0.385168 2.78923 1.14861 2.7406 1.12908 1.14861 0.385168 1.12908 0.3792 2.7406 1.12908 2.69331 1.11087 1.12908 0.3792 1.11087 0.370964 9.55694 5.97446 9.40378 5.87686 5.97446 3.0911 5.87686 3.0381 9.40378 5.87686 9.25062 5.78006 5.87686 3.0381 5.78006 2.98627 2.69329 2.64838 1.11086 1.09231 2.64838 2.60397 1.09231 1.08079 1.11086 1.09231 0.371001 0.365105 1.09231 1.08079 0.365105 0.333993 9.25062 5.78006 9.09747 5.68395 5.78006 2.98627 5.68395 2.93602 9.09747 5.68395 8.94431 5.588 5.68395 2.93602 5.588 2.8878 3.57521 3.30323 1.72815 1.42472 3.30323 3.20181 1.42472 1.33512 1.72815 1.42472 0.841498 0.528705 1.42472 1.33512 0.528705 0.452543 8.94431 5.588 8.79116 5.49241 5.588 2.8878 5.49241 2.83862 8.79116 5.49241 8.638 5.3969 5.49241 2.83862 5.3969 2.78923 3.20181 3.14415 1.33512 1.30245 3.14415 3.09109 1.30245 1.27739 1.33512 1.30245 0.452543 0.437031 1.30245 1.27739 0.437031 0.426156 8.638 5.3969 8.48485 5.30162 5.3969 2.78923 5.30162 2.7406 8.48485 5.30162 8.33169 5.20716 5.30162 2.7406 5.20716 2.69331 3.57521 1.72815 3.30323 1.42472 1.72815 0.841498 1.42472 0.528705 3.30323 1.42472 3.20181 1.33512 1.42472 0.528705 1.33512 0.452542 8.33169 8.17853 5.20715 5.11375 8.17853 8.02538 5.11375 5.02141 5.20715 5.11375 2.69329 2.64838 5.11375 5.02141 2.64838 2.60397 8.02538 7.87222 5.02141 4.92904 7.87222 7.71906 4.92904 4.83559 5.02141 4.92904 2.60397 2.55964 4.92904 4.83559 2.55964 2.51465 3.20181 1.33512 3.14415 1.30245 1.33512 0.452542 1.30245 0.437029 3.14415 1.30245 3.0911 1.27739 1.30245 0.437029 1.27739 0.426151 2.60397 2.55964 1.08079 1.06928 2.55964 2.51465 1.06928 1.05453 1.08079 1.06928 0.333993 0.342891 1.06928 1.05453 0.342891 0.35179 7.71906 7.56591 4.83559 4.74106 7.56591 7.41275 4.74106 4.64561 4.83559 4.74106 2.51465 2.46731 4.74106 4.64561 2.46731 2.41839 7.41275 7.2596 4.64561 4.54972 7.2596 7.10644 4.54972 4.45372 4.64561 4.54972 2.41839 2.36855 4.54972 4.45372 2.36855 2.31855 2.51465 2.46731 1.05453 1.03737 2.46731 2.41839 1.03737 1.01729 1.05453 1.03737 0.35179 0.347381 1.03737 1.01729 0.347381 0.342973 2.41839 2.36855 1.01729 0.996626 2.36855 2.31855 0.996626 0.974937 1.01729 0.996626 0.342973 0.334897 0.996626 0.974937 0.334897 0.326821 7.10644 6.95328 4.45372 4.35781 6.95328 6.80013 4.35781 4.26172 4.45372 4.35781 2.31855 2.26839 4.35781 4.26172 2.26839 2.21891 6.80013 6.64697 4.26172 4.16557 6.64697 6.49382 4.16557 4.06956 4.26172 4.16557 2.21891 2.16938 4.16557 4.06956 2.16938 2.11891 2.69331 1.11087 2.64839 1.09231 1.11087 0.370964 1.09231 0.36508 2.64839 1.09231 2.60396 1.08078 1.09231 0.36508 1.08078 0.333981 2.31855 2.26839 0.974937 0.95308 2.26839 2.21891 0.95308 0.929845 0.974937 0.95308 0.326821 0.310013 0.95308 0.929845 0.310013 0.293205 6.49382 6.34066 4.06956 3.97393 6.34066 6.1875 3.97393 3.88082 4.06956 3.97393 2.11891 2.06946 3.97393 3.88082 2.06946 2.02347 6.1875 6.03435 3.88082 3.79436 6.03435 5.88119 3.79436 3.71911 3.88082 3.79436 2.02347 1.9867 3.79436 3.71911 1.9867 1.9653 2.21891 2.16938 0.929845 0.906418 2.16938 2.11891 0.906418 0.887609 0.929845 0.906418 0.293205 0.310212 0.906418 0.887609 0.310212 0.305029 2.11891 2.06946 0.887609 0.867199 2.06946 2.02347 0.867199 0.849633 0.887609 0.867199 0.305029 0.300086 0.867199 0.849633 0.300086 0.295021 8.33169 5.20716 8.17853 5.11376 5.20716 2.69331 5.11376 2.64839 8.17853 5.11376 8.02538 5.0214 5.11376 2.64839 5.0214 2.60396 2.02347 1.9867 0.849633 0.839619 1.9867 1.9653 0.839619 0.841487 0.849633 0.839619 0.295021 0.29522 0.839619 0.841487 0.29522 0.298922 8.02538 5.0214 7.87222 4.92902 5.0214 2.60396 4.92902 2.55962 7.87222 4.92902 7.71906 4.83557 4.92902 2.55962 4.83557 2.51462 2.60396 1.08078 2.55962 1.06926 1.08078 0.333981 1.06926 0.342901 2.55962 1.06926 2.51462 1.0545 1.06926 0.342901 1.0545 0.351821 7.71906 4.83557 7.56591 4.74103 4.83557 2.51462 4.74103 2.46726 7.56591 4.74103 7.41275 4.64557 4.74103 2.46726 4.64557 2.41833 2.51462 1.0545 2.46726 1.03733 1.0545 0.351821 1.03733 0.347431 2.46726 1.03733 2.41833 1.01724 1.03733 0.347431 1.01724 0.343041 7.41275 4.64557 7.2596 4.54969 4.64557 2.41833 4.54969 2.36849 7.2596 4.54969 7.10644 4.4537 4.54969 2.36849 4.4537 2.31852 2.41833 1.01724 2.36849 0.996583 1.01724 0.343041 0.996583 0.334944 2.36849 0.996583 2.31852 0.974909 0.996583 0.334944 0.974909 0.326847 7.10644 4.4537 6.95328 4.35782 4.4537 2.31852 4.35782 2.26841 6.95328 4.35782 6.80013 4.26177 4.35782 2.26841 4.26177 2.21899 2.31852 0.974909 2.26841 0.953086 0.974909 0.326847 0.953086 0.309953 2.26841 0.953086 2.21899 0.929899 0.953086 0.309953 0.929899 0.293059 6.80013 4.26177 6.64697 4.16567 4.26177 2.21899 4.16567 2.16956 6.64697 4.16567 6.49382 4.06971 4.16567 2.16956 4.06971 2.11918 2.21899 0.929899 2.16956 0.906536 0.929899 0.293059 0.906536 0.309948 2.16956 0.906536 2.11918 0.887799 0.906536 0.309948 0.887799 0.304643 6.49382 4.06971 6.34066 3.97414 4.06971 2.11918 3.97414 2.06983 6.34066 3.97414 6.1875 3.88106 3.97414 2.06983 3.88106 2.02394 2.11918 0.887799 2.06983 0.867458 0.887799 0.304643 0.867458 0.299552 2.06983 0.867458 2.02394 0.849935 0.867458 0.299552 0.849935 0.294273 6.1875 3.88106 6.03435 3.79479 3.88106 2.02394 3.79479 1.98723 6.03435 3.79479 5.88119 3.71905 3.79479 1.98723 3.71905 1.96591 2.02394 0.849935 1.98723 0.83988 0.849935 0.294273 0.83988 0.294061 1.98723 0.83988 1.96591 0.841565 0.83988 0.294061 0.841565 0.297099 5.88119 5.72804 3.71911 3.65373 5.72804 5.57488 3.65373 3.59912 3.71911 3.65373 1.9653 1.96009 3.65373 3.59912 1.96009 1.96189 1.9653 1.96009 0.841487 0.854856 1.96009 1.96189 0.854856 0.880365 0.841487 0.854856 0.298922 0.311086 0.854856 0.880365 0.311086 0.307244 0.39766 0.391158 0.119358 0.116518 0.391158 0.390559 0.116518 0.144799 0.119358 0.116518 0.0244837 0.0262842 0.116518 0.144799 0.0262842 0.0280848 5.57488 5.42172 3.59912 3.53312 5.42172 5.26857 3.53312 3.61389 3.59912 3.53312 1.96189 1.97586 3.53312 3.61389 1.97586 1.95921 1.96189 1.97586 0.880365 0.904527 1.97586 1.95921 0.904527 0.927171 0.880365 0.904527 0.307244 0.333571 0.904527 0.927171 0.333571 0.359898 1.9501 1.92084 0.936241 0.924643 1.92084 1.86443 0.924643 0.897777 0.936241 0.924643 0.379341 0.366777 0.924643 0.897777 0.366777 0.354213 1.96591 0.841565 1.96013 0.854529 0.841565 0.297099 0.854529 0.308193 1.96013 0.854529 1.96441 0.879179 0.854529 0.308193 0.879179 0.302119 0.426156 0.410682 0.144316 0.134441 0.410682 0.39766 0.134441 0.119358 0.144316 0.134441 0.0330732 0.0287785 0.134441 0.119358 0.0287785 0.0244837 1.95921 1.95465 0.927171 0.93955 1.95465 1.9501 0.93955 0.936241 0.927171 0.93955 0.359898 0.36962 0.93955 0.936241 0.36962 0.379341 0.307244 0.333571 0.160465 0.178143 0.333571 0.359898 0.178143 0.195821 0.160465 0.178143 0.013687 0.0227152 0.178143 0.195821 0.0227152 0.0317435 5.88119 3.71905 5.72804 3.6556 3.71905 1.96591 3.6556 1.96013 5.72804 3.6556 5.57488 3.59456 3.6556 1.96013 3.59456 1.96441 0.390559 0.387695 0.144799 0.157085 0.387695 0.385209 0.157085 0.156387 0.144799 0.157085 0.0280848 0.0315813 0.157085 0.156387 0.0315813 0.0350779 1.67709 1.62978 0.800033 0.756731 1.62978 1.58247 0.756731 0.945132 0.800033 0.756731 0.316396 0.312097 0.756731 0.945132 0.312097 0.307798 5.57488 3.59456 5.42172 3.5558 3.59456 1.96441 3.5558 1.97178 5.42172 3.5558 5.26857 3.55647 3.5558 1.97178 3.55647 1.98176 1.96441 0.879179 1.97178 0.904333 0.879179 0.302119 0.904333 0.325571 1.97178 0.904333 1.98176 0.914314 0.904333 0.325571 0.914314 0.349023 0.385209 0.379239 0.156387 0.154166 0.379239 0.371001 0.154166 0.150736 0.156387 0.154166 0.0350779 0.035354 0.154166 0.150736 0.035354 0.0356302 1.98176 0.914314 1.96732 0.91632 0.914314 0.349023 0.91632 0.339216 1.96732 0.91632 1.94038 0.89764 0.91632 0.339216 0.89764 0.329409 1.94038 0.89764 1.88785 0.863205 0.89764 0.329409 0.863205 0.281736 1.88785 0.863205 1.83315 0.817034 0.863205 0.281736 0.817034 0.234064 0.397646 0.119307 0.391137 0.116445 0.119307 0.0243899 0.116445 0.0261456 0.391137 0.116445 0.390531 0.144699 0.116445 0.0261456 0.144699 0.0279014 0.359898 0.36962 0.195821 0.201315 0.36962 0.379341 0.201315 0.206809 0.195821 0.201315 0.0317435 0.0330102 0.201315 0.206809 0.0330102 0.034277 0.390531 0.144699 0.38766 0.156958 0.144699 0.0279014 0.156958 0.0313555 0.38766 0.156958 0.385168 0.156244 0.156958 0.0313555 0.156244 0.0348096 0.385168 0.156244 0.3792 0.154024 0.156244 0.0348096 0.154024 0.0351069 0.3792 0.154024 0.370964 0.150616 0.154024 0.0351069 0.150616 0.0354041 0.426151 0.144299 0.410674 0.134409 0.144299 0.0330461 0.134409 0.028718 0.410674 0.134409 0.397646 0.119307 0.134409 0.028718 0.119307 0.0243899 0.841498 0.528705 0.528705 0.223119 0.528705 0.452543 0.223119 0.155288 0.528705 0.223119 0.452542 0.155286 0.223119 0.155288 0.155286 0.0569602 1.86443 1.78442 0.897777 0.845702 1.78442 1.67709 0.845702 0.800033 0.897777 0.845702 0.354213 0.353817 0.845702 0.800033 0.353817 0.316396 0.371001 0.365105 0.150736 0.136729 0.365105 0.333993 0.136729 0.171972 0.150736 0.136729 0.0356302 0.0227908 0.136729 0.171972 0.0227908 0.00995133 0.452543 0.437031 0.155288 0.147148 0.437031 0.426156 0.147148 0.144316 0.155288 0.147148 0.0569602 0.0450167 0.147148 0.144316 0.0450167 0.0330732 0.379341 0.366777 0.206809 0.200876 0.366777 0.354213 0.200876 0.194943 0.206809 0.200876 0.034277 0.0349747 0.200876 0.194943 0.0349747 0.0356725 0.452542 0.155286 0.437029 0.147141 0.155286 0.0569602 0.147141 0.0450032 0.437029 0.147141 0.426151 0.144299 0.147141 0.0450032 0.144299 0.0330461 1.83315 0.817034 1.80019 0.815942 0.817034 0.234064 0.815942 0.230542 1.80019 0.815942 1.81037 0.909436 0.815942 0.230542 0.909436 0.250825 0.302119 0.150092 0.325571 0.162534 0.150092 -0.00193405 0.162534 -0.00050265 0.325571 0.162534 0.349023 0.174976 0.162534 -0.00050265 0.174976 0.000928749 0.349023 0.174976 0.339216 0.161307 0.174976 0.000928749 0.161307 -0.0166017 0.339216 0.161307 0.329409 0.147638 0.161307 -0.0166017 0.147638 -0.03413