# vtk DataFile Version 3.0
#This file was generated by the deal.II library on 2015/5/12 at 16: 3:48
ASCII
DATASET UNSTRUCTURED_GRID

POINTS 2524 double
0 0 0
5 0 0
0 5 0
5 5 0
5 0 0
10 0 0
5 5 0
10 5 0
0 5 0
5 5 0
0 10 0
5 10 0
5 5 0
10 5 0
5 10 0
10 10 0
0 -5 0
2.5 -5 0
0 -2.5 0
2.5 -2.5 0
2.5 -5 0
5 -5 0
2.5 -2.5 0
5 -2.5 0
0 -2.5 0
2.5 -2.5 0
0 0 0
2.5 0 0
2.5 -2.5 0
5 -2.5 0
2.5 0 0
5 0 0
5 -5 0
7.5 -5 0
5 -2.5 0
7.5 -2.5 0
7.5 -5 0
10 -5 0
7.5 -2.5 0
10 -2.5 0
5 -2.5 0
7.5 -2.5 0
5 0 0
7.5 0 0
7.5 -2.5 0
10 -2.5 0
7.5 0 0
10 0 0
-5 0 0
-2.5 0 0
-5 2.5 0
-2.5 2.5 0
-2.5 0 0
0 0 0
-2.5 2.5 0
0 2.5 0
-5 2.5 0
-2.5 2.5 0
-5 5 0
-2.5 5 0
-2.5 2.5 0
0 2.5 0
-2.5 5 0
0 5 0
-5 -5 0
-2.5 -5 0
-5 -2.5 0
-2.5 -2.5 0
-2.5 -5 0
0 -5 0
-2.5 -2.5 0
0 -2.5 0
-5 -2.5 0
-2.5 -2.5 0
-5 0 0
-2.5 0 0
-2.5 -2.5 0
0 -2.5 0
-2.5 0 0
0 0 0
-5 5 0
-2.5 5 0
-5 7.5 0
-2.5 7.5 0
-2.5 5 0
0 5 0
-2.5 7.5 0
0 7.5 0
-5 7.5 0
-2.5 7.5 0
-5 10 0
-2.5 10 0
-2.5 7.5 0
0 7.5 0
-2.5 10 0
0 10 0
2.5 -7.5 0
3.75 -7.5 0
2.5 -6.25 0
3.75 -6.25 0
3.75 -7.5 0
5 -7.5 0
3.75 -6.25 0
5 -6.25 0
2.5 -6.25 0
3.75 -6.25 0
2.5 -5 0
3.75 -5 0
3.75 -6.25 0
5 -6.25 0
3.75 -5 0
5 -5 0
-7.5 -7.5 0
-6.25 -7.5 0
-7.5 -6.25 0
-6.25 -6.25 0
-6.25 -7.5 0
-5 -7.5 0
-6.25 -6.25 0
-5 -6.25 0
-7.5 -6.25 0
-6.25 -6.25 0
-7.5 -5 0
-6.25 -5 0
-6.25 -6.25 0
-5 -6.25 0
-6.25 -5 0
-5 -5 0
0 -7.5 0
1.25 -7.5 0
0 -6.25 0
1.25 -6.25 0
1.25 -7.5 0
2.5 -7.5 0
1.25 -6.25 0
2.5 -6.25 0
0 -6.25 0
1.25 -6.25 0
0 -5 0
1.25 -5 0
1.25 -6.25 0
2.5 -6.25 0
1.25 -5 0
2.5 -5 0
-7.5 0 0
-6.25 0 0
-7.5 1.25 0
-6.25 1.25 0
-6.25 0 0
-5 0 0
-6.25 1.25 0
-5 1.25 0
-7.5 1.25 0
-6.25 1.25 0
-7.5 2.5 0
-6.25 2.5 0
-6.25 1.25 0
-5 1.25 0
-6.25 2.5 0
-5 2.5 0
-5 -7.5 0
-3.75 -7.5 0
-5 -6.25 0
-3.75 -6.25 0
-3.75 -7.5 0
-2.5 -7.5 0
-3.75 -6.25 0
-2.5 -6.25 0
-5 -6.25 0
-3.75 -6.25 0
-5 -5 0
-3.75 -5 0
-3.75 -6.25 0
-2.5 -6.25 0
-3.75 -5 0
-2.5 -5 0
5 -7.5 0
6.25 -7.5 0
5 -6.25 0
6.25 -6.25 0
6.25 -7.5 0
7.5 -7.5 0
6.25 -6.25 0
7.5 -6.25 0
5 -6.25 0
6.25 -6.25 0
5 -5 0
6.25 -5 0
6.25 -6.25 0
7.5 -6.25 0
6.25 -5 0
7.5 -5 0
-7.5 2.5 0
-6.25 2.5 0
-7.5 3.75 0
-6.25 3.75 0
-6.25 2.5 0
-5 2.5 0
-6.25 3.75 0
-5 3.75 0
-7.5 3.75 0
-6.25 3.75 0
-7.5 5 0
-6.25 5 0
-6.25 3.75 0
-5 3.75 0
-6.25 5 0
-5 5 0
-7.5 -5 0
-6.25 -5 0
-7.5 -3.75 0
-6.25 -3.75 0
-6.25 -5 0
-5 -5 0
-6.25 -3.75 0
-5 -3.75 0
-7.5 -3.75 0
-6.25 -3.75 0
-7.5 -2.5 0
-6.25 -2.5 0
-6.25 -3.75 0
-5 -3.75 0
-6.25 -2.5 0
-5 -2.5 0
-10 6.25 0
-8.75 6.25 0
-10 7.5 0
-8.75 7.5 0
7.5 -10 0
8.75 -10 0
7.5 -8.75 0
8.75 -8.75 0
8.75 -10 0
10 -10 0
8.75 -8.75 0
10 -8.75 0
8.75 -8.75 0
10 -8.75 0
8.75 -7.5 0
10 -7.5 0
-6.25 5 0
-5 5 0
-6.25 6.25 0
-5 6.25 0
-6.25 6.25 0
-5 6.25 0
-6.25 7.5 0
-5 7.5 0
-2.5 -7.5 0
-1.25 -7.5 0
-2.5 -6.25 0
-1.25 -6.25 0
-1.25 -7.5 0
0 -7.5 0
-1.25 -6.25 0
0 -6.25 0
-2.5 -6.25 0
-1.25 -6.25 0
-2.5 -5 0
-1.25 -5 0
-1.25 -6.25 0
0 -6.25 0
-1.25 -5 0
0 -5 0
-7.5 -2.5 0
-6.25 -2.5 0
-7.5 -1.25 0
-6.25 -1.25 0
-6.25 -2.5 0
-5 -2.5 0
-6.25 -1.25 0
-5 -1.25 0
-7.5 -1.25 0
-6.25 -1.25 0
-7.5 0 0
-6.25 0 0
-6.25 -1.25 0
-5 -1.25 0
-6.25 0 0
-5 0 0
-10 7.5 0
-8.75 7.5 0
-10 8.75 0
-8.75 8.75 0
-10 8.75 0
-8.75 8.75 0
-10 10 0
-8.75 10 0
-8.75 8.75 0
-7.5 8.75 0
-8.75 10 0
-7.5 10 0
-6.25 7.5 0
-5 7.5 0
-6.25 8.75 0
-5 8.75 0
-7.5 8.75 0
-6.25 8.75 0
-7.5 10 0
-6.25 10 0
-6.25 8.75 0
-5 8.75 0
-6.25 10 0
-5 10 0
7.5 -7.5 0
8.75 -7.5 0
7.5 -6.25 0
8.75 -6.25 0
8.75 -7.5 0
10 -7.5 0
8.75 -6.25 0
10 -6.25 0
7.5 -6.25 0
8.75 -6.25 0
7.5 -5 0
8.75 -5 0
8.75 -6.25 0
10 -6.25 0
8.75 -5 0
10 -5 0
-6.875 -8.75 0
-6.25 -8.75 0
-6.875 -8.125 0
-6.25 -8.125 0
-7.5 -8.125 0
-6.875 -8.125 0
-7.5 -7.5 0
-6.875 -7.5 0
-6.875 -8.125 0
-6.25 -8.125 0
-6.875 -7.5 0
-6.25 -7.5 0
0 -8.75 0
0.625 -8.75 0
0 -8.125 0
0.625 -8.125 0
0 -8.125 0
0.625 -8.125 0
0 -7.5 0
0.625 -7.5 0
0.625 -8.125 0
1.25 -8.125 0
0.625 -7.5 0
1.25 -7.5 0
1.25 -8.125 0
1.875 -8.125 0
1.25 -7.5 0
1.875 -7.5 0
1.875 -8.125 0
2.5 -8.125 0
1.875 -7.5 0
2.5 -7.5 0
-6.25 -8.75 0
-5.625 -8.75 0
-6.25 -8.125 0
-5.625 -8.125 0
-5.625 -8.75 0
-5 -8.75 0
-5.625 -8.125 0
-5 -8.125 0
-6.25 -8.125 0
-5.625 -8.125 0
-6.25 -7.5 0
-5.625 -7.5 0
-5.625 -8.125 0
-5 -8.125 0
-5.625 -7.5 0
-5 -7.5 0
-8.75 0 0
-8.125 0 0
-8.75 0.625 0
-8.125 0.625 0
-8.125 0 0
-7.5 0 0
-8.125 0.625 0
-7.5 0.625 0
-8.125 0.625 0
-7.5 0.625 0
-8.125 1.25 0
-7.5 1.25 0
-8.125 1.25 0
-7.5 1.25 0
-8.125 1.875 0
-7.5 1.875 0
-8.125 1.875 0
-7.5 1.875 0
-8.125 2.5 0
-7.5 2.5 0
-8.125 -7.5 0
-7.5 -7.5 0
-8.125 -6.875 0
-7.5 -6.875 0
-8.75 -6.875 0
-8.125 -6.875 0
-8.75 -6.25 0
-8.125 -6.25 0
-8.125 -6.875 0
-7.5 -6.875 0
-8.125 -6.25 0
-7.5 -6.25 0
-8.75 -6.25 0
-8.125 -6.25 0
-8.75 -5.625 0
-8.125 -5.625 0
-8.125 -6.25 0
-7.5 -6.25 0
-8.125 -5.625 0
-7.5 -5.625 0
-8.75 -5.625 0
-8.125 -5.625 0
-8.75 -5 0
-8.125 -5 0
-8.125 -5.625 0
-7.5 -5.625 0
-8.125 -5 0
-7.5 -5 0
-5 -8.75 0
-4.375 -8.75 0
-5 -8.125 0
-4.375 -8.125 0
-5 -8.125 0
-4.375 -8.125 0
-5 -7.5 0
-4.375 -7.5 0
-4.375 -8.125 0
-3.75 -8.125 0
-4.375 -7.5 0
-3.75 -7.5 0
-8.75 -8.75 0
-8.125 -8.75 0
-8.75 -8.125 0
-8.125 -8.125 0
-8.125 -8.125 0
-7.5 -8.125 0
-8.125 -7.5 0
-7.5 -7.5 0
-3.75 -8.125 0
-3.125 -8.125 0
-3.75 -7.5 0
-3.125 -7.5 0
-3.125 -8.125 0
-2.5 -8.125 0
-3.125 -7.5 0
-2.5 -7.5 0
-8.75 2.5 0
-8.125 2.5 0
-8.75 3.125 0
-8.125 3.125 0
-8.125 2.5 0
-7.5 2.5 0
-8.125 3.125 0
-7.5 3.125 0
-8.75 3.125 0
-8.125 3.125 0
-8.75 3.75 0
-8.125 3.75 0
-8.125 3.125 0
-7.5 3.125 0
-8.125 3.75 0
-7.5 3.75 0
-8.75 -5 0
-8.125 -5 0
-8.75 -4.375 0
-8.125 -4.375 0
-8.125 -5 0
-7.5 -5 0
-8.125 -4.375 0
-7.5 -4.375 0
-8.125 -4.375 0
-7.5 -4.375 0
-8.125 -3.75 0
-7.5 -3.75 0
1.875 -10 0
2.5 -10 0
1.875 -9.375 0
2.5 -9.375 0
-10 3.75 0
-9.375 3.75 0
-10 4.375 0
-9.375 4.375 0
-9.375 3.75 0
-8.75 3.75 0
-9.375 4.375 0
-8.75 4.375 0
-10 4.375 0
-9.375 4.375 0
-10 5 0
-9.375 5 0
-8.125 3.75 0
-7.5 3.75 0
-8.125 4.375 0
-7.5 4.375 0
-8.125 4.375 0
-7.5 4.375 0
-8.125 5 0
-7.5 5 0
2.5 -10 0
3.125 -10 0
2.5 -9.375 0
3.125 -9.375 0
2.5 -8.75 0
3.125 -8.75 0
2.5 -8.125 0
3.125 -8.125 0
2.5 -8.125 0
3.125 -8.125 0
2.5 -7.5 0
3.125 -7.5 0
3.125 -8.125 0
3.75 -8.125 0
3.125 -7.5 0
3.75 -7.5 0
5 -8.75 0
5.625 -8.75 0
5 -8.125 0
5.625 -8.125 0
5.625 -8.75 0
6.25 -8.75 0
5.625 -8.125 0
6.25 -8.125 0
5 -8.125 0
5.625 -8.125 0
5 -7.5 0
5.625 -7.5 0
5.625 -8.125 0
6.25 -8.125 0
5.625 -7.5 0
6.25 -7.5 0
-10 1.875 0
-9.375 1.875 0
-10 2.5 0
-9.375 2.5 0
5 -10 0
5.625 -10 0
5 -9.375 0
5.625 -9.375 0
5.625 -10 0
6.25 -10 0
5.625 -9.375 0
6.25 -9.375 0
5 -9.375 0
5.625 -9.375 0
5 -8.75 0
5.625 -8.75 0
-10 2.5 0
-9.375 2.5 0
-10 3.125 0
-9.375 3.125 0
-10 3.125 0
-9.375 3.125 0
-10 3.75 0
-9.375 3.75 0
-9.375 3.125 0
-8.75 3.125 0
-9.375 3.75 0
-8.75 3.75 0
-1.875 -8.75 0
-1.25 -8.75 0
-1.875 -8.125 0
-1.25 -8.125 0
-2.5 -8.125 0
-1.875 -8.125 0
-2.5 -7.5 0
-1.875 -7.5 0
-1.875 -8.125 0
-1.25 -8.125 0
-1.875 -7.5 0
-1.25 -7.5 0
-1.25 -8.75 0
-0.625 -8.75 0
-1.25 -8.125 0
-0.625 -8.125 0
-0.625 -8.75 0
0 -8.75 0
-0.625 -8.125 0
0 -8.125 0
-1.25 -8.125 0
-0.625 -8.125 0
-1.25 -7.5 0
-0.625 -7.5 0
-0.625 -8.125 0
0 -8.125 0
-0.625 -7.5 0
0 -7.5 0
-8.125 -3.75 0
-7.5 -3.75 0
-8.125 -3.125 0
-7.5 -3.125 0
-8.125 -3.125 0
-7.5 -3.125 0
-8.125 -2.5 0
-7.5 -2.5 0
-8.125 -2.5 0
-7.5 -2.5 0
-8.125 -1.875 0
-7.5 -1.875 0
-8.75 -1.875 0
-8.125 -1.875 0
-8.75 -1.25 0
-8.125 -1.25 0
-8.125 -1.875 0
-7.5 -1.875 0
-8.125 -1.25 0
-7.5 -1.25 0
-8.75 -1.25 0
-8.125 -1.25 0
-8.75 -0.625 0
-8.125 -0.625 0
-8.125 -1.25 0
-7.5 -1.25 0
-8.125 -0.625 0
-7.5 -0.625 0
-8.75 -0.625 0
-8.125 -0.625 0
-8.75 0 0
-8.125 0 0
-8.125 -0.625 0
-7.5 -0.625 0
-8.125 0 0
-7.5 0 0
4.375 -8.75 0
5 -8.75 0
4.375 -8.125 0
5 -8.125 0
3.75 -8.125 0
4.375 -8.125 0
3.75 -7.5 0
4.375 -7.5 0
4.375 -8.125 0
5 -8.125 0
4.375 -7.5 0
5 -7.5 0
-8.75 5 0
-8.125 5 0
-8.75 5.625 0
-8.125 5.625 0
-8.125 5 0
-7.5 5 0
-8.125 5.625 0
-7.5 5.625 0
-8.75 5.625 0
-8.125 5.625 0
-8.75 6.25 0
-8.125 6.25 0
6.875 -8.75 0
7.5 -8.75 0
6.875 -8.125 0
7.5 -8.125 0
6.25 -8.125 0
6.875 -8.125 0
6.25 -7.5 0
6.875 -7.5 0
6.875 -8.125 0
7.5 -8.125 0
6.875 -7.5 0
7.5 -7.5 0
6.25 -10 0
6.875 -10 0
6.25 -9.375 0
6.875 -9.375 0
6.875 -10 0
7.5 -10 0
6.875 -9.375 0
7.5 -9.375 0
6.25 -9.375 0
6.875 -9.375 0
6.25 -8.75 0
6.875 -8.75 0
6.875 -9.375 0
7.5 -9.375 0
6.875 -8.75 0
7.5 -8.75 0
-10 5 0
-9.375 5 0
-10 5.625 0
-9.375 5.625 0
-9.375 5 0
-8.75 5 0
-9.375 5.625 0
-8.75 5.625 0
-10 5.625 0
-9.375 5.625 0
-10 6.25 0
-9.375 6.25 0
-9.375 5.625 0
-8.75 5.625 0
-9.375 6.25 0
-8.75 6.25 0
-7.5 5 0
-6.875 5 0
-7.5 5.625 0
-6.875 5.625 0
-6.875 5 0
-6.25 5 0
-6.875 5.625 0
-6.25 5.625 0
-6.875 5.625 0
-6.25 5.625 0
-6.875 6.25 0
-6.25 6.25 0
-8.75 6.25 0
-8.125 6.25 0
-8.75 6.875 0
-8.125 6.875 0
-8.125 6.25 0
-7.5 6.25 0
-8.125 6.875 0
-7.5 6.875 0
-8.75 6.875 0
-8.125 6.875 0
-8.75 7.5 0
-8.125 7.5 0
-8.125 6.875 0
-7.5 6.875 0
-8.125 7.5 0
-7.5 7.5 0
7.5 -8.75 0
8.125 -8.75 0
7.5 -8.125 0
8.125 -8.125 0
8.125 -8.75 0
8.75 -8.75 0
8.125 -8.125 0
8.75 -8.125 0
7.5 -8.125 0
8.125 -8.125 0
7.5 -7.5 0
8.125 -7.5 0
8.125 -8.125 0
8.75 -8.125 0
8.125 -7.5 0
8.75 -7.5 0
-7.5 6.25 0
-6.875 6.25 0
-7.5 6.875 0
-6.875 6.875 0
-6.875 6.25 0
-6.25 6.25 0
-6.875 6.875 0
-6.25 6.875 0
-7.5 6.875 0
-6.875 6.875 0
-7.5 7.5 0
-6.875 7.5 0
-6.875 6.875 0
-6.25 6.875 0
-6.875 7.5 0
-6.25 7.5 0
-8.75 7.5 0
-8.125 7.5 0
-8.75 8.125 0
-8.125 8.125 0
-8.125 7.5 0
-7.5 7.5 0
-8.125 8.125 0
-7.5 8.125 0
-8.75 8.125 0
-8.125 8.125 0
-8.75 8.75 0
-8.125 8.75 0
-8.125 8.125 0
-7.5 8.125 0
-8.125 8.75 0
-7.5 8.75 0
-7.5 7.5 0
-6.875 7.5 0
-7.5 8.125 0
-6.875 8.125 0
-6.875 7.5 0
-6.25 7.5 0
-6.875 8.125 0
-6.25 8.125 0
-7.5 8.125 0
-6.875 8.125 0
-7.5 8.75 0
-6.875 8.75 0
-6.875 8.125 0
-6.25 8.125 0
-6.875 8.75 0
-6.25 8.75 0
-10 -10 0
-9.6875 -10 0
-10 -9.6875 0
-9.6875 -9.6875 0
-9.6875 -10 0
-9.375 -10 0
-9.6875 -9.6875 0
-9.375 -9.6875 0
-10 -9.6875 0
-9.6875 -9.6875 0
-10 -9.375 0
-9.6875 -9.375 0
-9.6875 -9.6875 0
-9.375 -9.6875 0
-9.6875 -9.375 0
-9.375 -9.375 0
-9.375 -10 0
-9.0625 -10 0
-9.375 -9.6875 0
[...]
POINT_DATA 2524
SCALARS V double 1
LOOKUP_TABLE default
0.0160159 -0.00743254 -0.0249067 0.00677244 -0.00743254 0 0.00677244 0 -0.0249067 0.00677244 0 0 0.00677244 0 0 0 0.00111209 0.00962365 0.00941005 0.00755841 0.00962365 0.0264143 0.00755841 0.00514612 0.00941005 0.00755841 0.0160159 0.00429167 0.00755841 0.00514612 0.00429167 -0.00743254 0.0264143 -0.0103971 0.00514612 0.00802539 -0.0103971 0 0.00802539 0 0.00514612 0.00802539 -0.00743254 -0.00371627 0.00802539 0 -0.00371627 0 -0.00254698 0.00723534 0.0541489 0.031114 0.00723534 0.0160159 0.031114 -0.0044454 0.0541489 0.031114 0.0921748 0.0526851 0.031114 -0.0044454 0.0526851 -0.0249067 0.00692197 0.00304125 0.000230959 0.00598822 0.00304125 0.00111209 0.00598822 0.00941005 0.000230959 0.00598822 -0.00254698 0.00723534 0.00598822 0.00941005 0.00723534 0.0160159 0.0921748 0.0526851 0.0404441 0.0284011 0.0526851 -0.0249067 0.0284011 -0.0124533 0.0404441 0.0284011 0 0 0.0284011 -0.0124533 0 0 0.0244346 0.147968 0.0185691 0.0888569 0.147968 0.103265 0.0888569 0.137755 0.0185691 0.0888569 0.00962365 0.018019 0.0888569 0.137755 0.018019 0.0264143 0.00552254 -0.00276075 -0.00313261 -0.00771658 -0.00276075 0.00248013 -0.00771658 -0.000636269 -0.00313261 -0.00771658 0.00185017 -0.00110542 -0.00771658 -0.000636269 -0.00110542 0.00692197 0.00590785 0.0068283 0.00154199 0.0029553 0.0068283 0.0244346 0.0029553 0.0185691 0.00154199 0.0029553 0.00111209 0.00536787 0.0029553 0.0185691 0.00536787 0.00962365 -0.0113512 -0.00979824 -0.0300388 -0.0141296 -0.00979824 -0.00254698 -0.0141296 0.025801 -0.0300388 -0.0141296 -0.126603 -0.0266604 -0.0141296 0.025801 -0.0266604 0.0541489 0.00248013 0.00335778 -0.000636269 -0.00161297 0.00335778 0.000589904 -0.00161297 0.00045327 -0.000636269 -0.00161297 0.00692197 0.00498161 -0.00161297 0.00045327 0.00498161 0.00304125 0.103265 -0.18865 0.137755 -0.045809 -0.18865 -0.318532 -0.045809 -0.213803 0.137755 -0.045809 0.0264143 0.00800863 -0.045809 -0.213803 0.00800863 -0.0103971 -0.126603 -0.0266604 -0.43251 -0.158158 -0.0266604 0.0541489 -0.158158 0.0731619 -0.43251 -0.158158 -0.474459 -0.31279 -0.158158 0.0731619 -0.31279 0.0921748 0.00185017 -0.00110542 0.00405823 -0.00170459 -0.00110542 0.00692197 -0.00170459 0.00357646 0.00405823 -0.00170459 0.00163442 4.76678e-05 -0.00170459 0.00357646 4.76678e-05 0.000230959 2.83503 1.10787 2.21872 0.826683 2.21872 1.60241 0.703664 0.713851 1.60241 0.986098 0.713851 0.369787 0.713851 0.369787 -0.149106 0 -0.31279 0.0921748 -0.29843 0.0633869 -0.29843 0.0633869 -0.258272 0.0404441 0.000589904 0.00178249 0.00045327 0.00117891 0.00178249 0.00590785 0.00117891 0.00154199 0.00045327 0.00117891 0.00304125 0.00207667 0.00117891 0.00154199 0.00207667 0.00111209 0.00163442 4.76678e-05 -0.00326827 -0.00430215 4.76678e-05 0.000230959 -0.00430215 -0.00115801 -0.00326827 -0.00430215 -0.0113512 -0.00979824 -0.00430215 -0.00115801 -0.00979824 -0.00254698 2.21872 0.826683 1.60241 0.671686 1.60241 0.671686 0.986098 0.369787 0.671686 -0.207846 0.369787 0 -0.258272 0.0404441 -0.14436 0.0202221 -0.207846 -0.14436 0 0 -0.14436 0.0202221 0 0 -0.318532 -0.149106 -0.213803 -0.121944 -0.149106 0 -0.121944 0 -0.213803 -0.121944 -0.0103971 -0.00519853 -0.121944 0 -0.00519853 0 0.0824344 0.0926587 0.00037077 0.0114399 0.00741453 0.00037077 0.00552254 0.00138089 0.00037077 0.0114399 0.00138089 -0.00276075 0.0851277 0.112188 -0.0011773 -0.00199611 -0.0011773 -0.00199611 0.00590785 0.00636807 -0.00199611 -0.0100074 0.00636807 0.0068283 -0.0100074 -0.0189492 0.0068283 0.0156315 -0.0189492 -0.00382751 0.0156315 0.0244346 0.0926587 0.090637 0.0114399 0.010311 0.090637 0.0882876 0.010311 0.0120979 0.0114399 0.010311 -0.00276075 -0.000140314 0.010311 0.0120979 -0.000140314 0.00248013 0.0852087 -0.00895564 0.110044 -0.017964 -0.00895564 -0.0113512 -0.017964 -0.020695 -0.017964 -0.020695 -0.0387545 -0.0300388 -0.0387545 -0.0300388 -0.0713091 -0.0783208 -0.0713091 -0.0783208 -0.181204 -0.126603 0.00739101 0.00552254 0.00028229 0.00119497 0.0824387 0.00028229 0.0926642 0.0112603 0.00028229 0.00119497 0.0112603 -0.00313261 0.0926642 0.0112603 0.0906451 0.0100373 0.0112603 -0.00313261 0.0100373 -0.000641218 0.0906451 0.0100373 0.0882916 0.0118523 0.0100373 -0.000641218 0.0118523 0.00185017 0.0882876 0.0893099 0.0120979 0.0032267 0.0120979 0.0032267 0.00248013 0.00291895 0.0032267 -0.00270157 0.00291895 0.00335778 0.221313 0.112057 0.112056 -0.000227036 -0.000227036 0.00741453 0.00739101 0.00552254 -0.00270157 -0.00492228 0.00335778 0.00197384 -0.00492228 -0.005387 0.00197384 0.000589904 0.0371064 -0.181204 -0.0641931 -0.373726 -0.181204 -0.126603 -0.373726 -0.279557 -0.0641931 -0.373726 0.00986904 -0.500773 -0.373726 -0.279557 -0.500773 -0.43251 0.0882916 0.0118523 0.0892972 0.00318394 0.0118523 0.00185017 0.00318394 0.0029542 0.00318394 0.0029542 -0.0024291 0.00405823 4.99212 4.68396 1.60589 1.55863 4.06765 1.63685 3.7595 1.98471 1.63685 0.00986904 1.98471 0.539795 3.7595 1.98471 3.45134 2.28683 -0.500773 -0.43251 -0.191102 -0.457609 -0.191102 -0.457609 0.185874 -0.474459 4.68396 4.37581 1.55863 1.33102 0.184228 0.15695 -0.00382751 0.0300264 -0.00382751 0.0300264 0.0244346 0.0862011 0.0300264 0.0459892 0.0862011 0.147968 0.0298229 -0.0275784 -0.106039 -0.236677 -0.0275784 0.000716472 -0.236677 -0.299161 -0.106039 -0.236677 0.103265 -0.0426921 -0.236677 -0.299161 -0.0426921 -0.18865 4.99212 1.59235 4.68396 1.50274 3.45134 3.14319 1.28564 1.2755 3.14319 2.83503 1.2755 1.23444 1.28564 1.2755 0.0298229 -0.0275784 4.68396 1.50274 4.37581 1.45573 4.37581 1.45573 4.06765 1.63685 1.45573 -0.0641931 1.63685 0.00986904 0.0904982 0.0868627 -0.00481189 -0.00389705 -0.005387 -0.00481189 0.000589904 0.0011862 -0.00481189 -0.00389705 0.0011862 0.00178249 0.0868627 0.0820503 -0.00389705 -0.0028088 0.0820503 0.0851277 -0.0028088 -0.0011773 -0.00389705 -0.0028088 0.00178249 0.00384517 -0.0028088 -0.0011773 0.00384517 0.00590785 -0.0024291 0.00405823 -0.00427267 0.00284632 -0.00427267 0.00284632 -0.00495847 0.00163442 -0.00495847 0.00163442 -0.00564029 -0.000816928 0.0905256 -0.00564029 0.0870257 -0.00663202 -0.00564029 -0.000816928 -0.00663202 -0.00326827 0.0870257 -0.00663202 0.0823908 -0.00714701 -0.00663202 -0.00326827 -0.00714701 -0.00730975 0.0823908 -0.00714701 0.0852087 -0.00895564 -0.00714701 -0.00730975 -0.00895564 -0.0113512 0.051502 0.0298229 -0.0236206 -0.106039 0.0459892 -0.0236206 0.147968 0.125616 -0.0236206 -0.106039 0.125616 0.103265 1.12233 0.185874 1.1151 0.28236 0.185874 -0.474459 0.28236 -0.441386 1.1151 0.28236 1.10787 0.275627 0.342295 0.703664 -0.130139 0.192566 -0.299161 -0.130139 -0.18865 -0.253591 -0.130139 0.192566 -0.253591 -0.318532 2.83503 2.52688 1.23444 1.34395 2.52688 2.21872 1.34395 1.46119 1.23444 1.34395 0.000716472 0.342295 1.34395 1.46119 0.342295 0.703664 3.45134 2.28683 3.14319 2.12914 2.28683 1.12233 2.12914 1.1151 3.14319 2.12914 2.83503 1.97145 2.12914 1.1151 1.97145 1.10787 -0.474459 -0.41847 -0.441386 -0.493582 -0.41847 -0.31279 -0.493582 -0.30561 -0.493582 -0.30561 -0.425172 -0.29843 1.10787 0.275627 0.967275 0.218198 0.275627 -0.444294 0.218198 -0.422782 0.967275 0.218198 0.826683 0.205412 0.218198 -0.422782 0.205412 -0.415859 0.703664 0.708758 0.192566 0.237469 0.708758 0.713851 0.237469 0.282373 0.192566 0.237469 -0.318532 -0.233819 0.237469 0.282373 -0.233819 -0.149106 -0.444294 -0.425172 -0.422782 -0.404202 -0.425172 -0.29843 -0.404202 -0.278351 -0.422782 -0.404202 -0.415859 -0.337065 -0.404202 -0.278351 -0.337065 -0.258272 0.826683 0.205412 0.749184 0.218666 0.205412 -0.415859 0.218666 -0.311852 0.749184 0.218666 0.671686 0.23192 0.218666 -0.311852 0.23192 -0.207846 -0.415859 -0.337065 -0.311852 -0.256584 -0.337065 -0.258272 -0.256584 -0.201316 -0.311852 -0.256584 -0.207846 -0.176103 -0.256584 -0.201316 -0.176103 -0.14436 10.8471 10.693 10.693 8.54354 10.693 10.5389 8.54354 6.93507 10.693 8.54354 10.5389 6.93507 8.54354 6.93507 6.93507 4.2874 10.5389 10.3848 6.93507 6.07147 10.3848 10.2308 6.07147 5.73144 6.93507 6.07147 4.2874 2.9195 6.07147 5.73144 2.9195 2.44963 10.5389 6.93507 10.3848 6.07147 6.93507 4.2874 6.07147 2.9195 10.3848 6.07147 10.2308 5.73144 6.07147 2.9195 5.73144 2.44963 4.2874 2.9195 2.9195 1.30911 2.9195 2.44963 1.30911 0.773886 2.9195 1.30911 2.44963 0.773886 1.30911 0.773886 0.773886 0.221313 10.2308 10.0767 5.73144 5.60665 10.0767 9.92261 5.60665 5.52271 5.73144 5.60665 2.44963 2.34614 5.60665 5.52271 2.34614 2.31388 9.92261 9.76853 5.52271 5.43578 9.76853 9.61445 5.43578 5.34667 5.52271 5.43578 2.31388 2.27445 5.43578 5.34667 2.27445 2.23152 2.23152 2.19082 0.639686 0.6227 2.19082 2.15351 0.6227 0.608955 0.639686 0.6227 0.0994243 0.0909294 0.6227 0.608955 0.0909294 0.0824344 2.15351 2.11818 0.608955 0.596514 2.11818 2.08289 0.596514 0.588145 0.608955 0.596514 0.0824344 0.0947213 0.596514 0.588145 0.0947213 0.0926587 10.2308 5.73144 10.0767 5.60665 5.73144 2.44963 5.60665 2.34614 10.0767 5.60665 9.92261 5.52271 5.60665 2.34614 5.52271 2.31388 2.08289 2.04754 0.588145 0.57855 2.04754 2.01174 0.57855 0.568403 0.588145 0.57855 0.0926587 0.0921365 0.57855 0.568403 0.0921365 0.090637 9.92261 5.52271 9.76853 5.43578 5.52271 2.31388 5.43578 2.27446 9.76853 5.43578 9.61445 5.34667 5.43578 2.27446 5.34667 2.23152 2.01174 1.97608 0.568403 0.558188 1.97608 1.94219 0.558188 0.550424 0.568403 0.558188 0.090637 0.0889297 0.558188 0.550424 0.0889297 0.0882876 9.61445 9.46037 5.34667 5.259 9.46037 9.3063 5.259 5.17267 5.34667 5.259 2.23152 2.19082 5.259 5.17267 2.19082 2.15351 9.3063 9.15222 5.17267 5.08699 9.15222 8.99814 5.08699 5.00152 5.17267 5.08699 2.15351 2.11818 5.08699 5.00152 2.11818 2.08289 2.23152 0.639691 2.19082 0.62271 0.639691 0.0994249 0.62271 0.0909318 2.19082 0.62271 2.15352 0.608972 0.62271 0.0909318 0.608972 0.0824387 2.15352 0.608972 2.1182 0.596539 0.608972 0.0824387 0.596539 0.0947251 2.1182 0.596539 2.08291 0.588178 0.596539 0.0947251 0.588178 0.0926642 8.99814 8.84406 5.00152 4.91594 8.84406 8.68998 4.91594 4.83026 5.00152 4.91594 2.08289 2.04754 4.91594 4.83026 2.04754 2.01174 8.68998 8.53591 4.83026 4.74463 8.53591 8.38183 4.74463 4.65965 4.83026 4.74463 2.01174 1.97608 4.74463 4.65965 1.97608 1.94219 2.08291 0.588178 2.04757 0.578592 0.588178 0.0926642 0.578592 0.0921439 2.04757 0.578592 2.01178 0.568453 0.578592 0.0921439 0.568453 0.0906451 2.01178 0.568453 1.97612 0.558238 0.568453 0.0906451 0.558238 0.088938 1.97612 0.558238 1.94222 0.550466 0.558238 0.088938 0.550466 0.0882916 9.61445 5.34667 9.46037 5.259 5.34667 2.23152 5.259 2.19082 9.46037 5.259 9.3063 5.17267 5.259 2.19082 5.17267 2.15352 1.94219 1.91198 0.550424 0.547269 1.91198 1.88464 0.547269 0.55049 0.550424 0.547269 0.0882876 0.0949867 0.547269 0.55049 0.0949867 0.0893099 9.3063 5.17267 9.15222 5.08699 5.17267 2.15352 5.08699 2.1182 9.15222 5.08699 8.99814 5.00153 5.08699 2.1182 5.00153 2.08291 2.44963 2.34614 0.773886 0.68112 2.34614 2.31388 0.68112 0.673538 0.773886 0.68112 0.221313 0.139236 0.68112 0.673538 0.139236 0.112057 8.99814 5.00153 8.84406 4.91595 5.00153 2.08291 4.91595 2.04757 8.84406 4.91595 8.68998 4.83027 4.91595 2.04757 4.83027 2.01178 2.31388 2.27445 0.673538 0.659818 2.27445 2.23152 0.659818 0.639686 0.673538 0.659818 0.112057 0.10574 0.659818 0.639686 0.10574 0.0994243 8.68998 4.83027 8.53591 4.74465 4.83027 2.01178 4.74465 1.97612 8.53591 4.74465 8.38183 4.65966 4.74465 1.97612 4.65966 1.94222 2.44963 0.773886 2.34614 0.68112 0.773886 0.221313 0.68112 0.139235 2.34614 0.68112 2.31388 0.673538 0.68112 0.139235 0.673538 0.112056 8.38183 8.22775 4.65965 4.57608 8.22775 8.07367 4.57608 4.49396 4.65965 4.57608 1.94219 1.91198 4.57608 4.49396 1.91198 1.88464 8.07367 7.9196 4.49396 4.41188 7.9196 7.76552 4.41188 4.32853 4.49396 4.41188 1.88464 1.85768 4.41188 4.32853 1.85768 1.82743 2.31388 0.673538 2.27446 0.65982 0.673538 0.112056 0.65982 0.10574 2.27446 0.65982 2.23152 0.639691 0.65982 0.10574 0.639691 0.0994249 1.88464 1.85768 0.55049 0.551602 1.85768 1.82743 0.551602 0.5487 0.55049 0.551602 0.0893099 0.0953735 0.551602 0.5487 0.0953735 0.101437 7.76552 7.61144 4.32853 4.24363 7.61144 7.45736 4.24363 4.15781 4.32853 4.24363 1.82743 1.79346 4.24363 4.15781 1.79346 1.75741 7.45736 7.30329 4.15781 4.07181 7.30329 7.14921 4.07181 3.98588 4.15781 4.07181 1.75741 1.7209 4.07181 3.98588 1.7209 1.68454 1.82743 1.79346 0.5487 0.541034 1.79346 1.75741 0.541034 0.530377 0.5487 0.541034 0.101437 0.100327 0.541034 0.530377 0.100327 0.0992161 1.75741 1.7209 0.530377 0.519215 1.7209 1.68454 0.519215 0.508133 0.530377 0.519215 0.0992161 0.0967867 0.519215 0.508133 0.0967867 0.0943572 7.14921 6.99513 3.98588 3.89999 6.99513 6.84105 3.89999 3.81408 3.98588 3.89999 1.68454 1.64825 3.89999 3.81408 1.64825 1.61196 6.84105 6.68697 3.81408 3.72821 6.68697 6.5329 3.72821 3.64229 3.81408 3.72821 1.61196 1.57571 3.72821 3.64229 1.57571 1.5394 1.94222 0.550466 1.91199 0.547291 0.550466 0.0882916 0.547291 0.0949835 1.91199 0.547291 1.88464 0.550484 0.547291 0.0949835 0.550484 0.0892972 1.68454 1.64825 0.508133 0.497184 1.64825 1.61196 0.497184 0.486301 0.508133 0.497184 0.0943572 0.0924277 0.497184 0.486301 0.0924277 0.0904982 6.5329 6.37882 3.64229 3.55587 6.37882 6.22474 3.55587 3.46999 3.64229 3.55587 1.5394 1.50246 3.55587 3.46999 1.50246 1.46606 6.22474 6.07066 3.46999 3.3925 6.07066 5.91659 3.3925 3.33854 3.46999 3.3925 1.46606 1.43961 3.3925 3.33854 1.43961 1.44087 1.61196 1.57571 0.486301 0.47547 1.57571 1.5394 0.47547 0.464561 0.486301 0.47547 0.0904982 0.0886805 0.47547 0.464561 0.0886805 0.0868627 1.5394 1.50246 0.464561 0.453172 1.50246 1.46606 0.453172 0.442179 0.464561 0.453172 0.0868627 0.0844565 0.453172 0.442179 0.0844565 0.0820503 8.38183 4.65966 8.22775 4.57608 4.65966 1.94222 4.57608 1.91199 8.22775 4.57608 8.07367 4.49396 4.57608 1.91199 4.49396 1.88464 1.46606 1.43961 0.442179 0.436721 1.43961 1.44087 0.436721 0.448069 0.442179 0.436721 0.0820503 0.083589 0.436721 0.448069 0.083589 0.0851277 8.07367 4.49396 7.9196 4.41187 4.49396 1.88464 4.41187 1.85765 7.9196 4.41187 7.76552 4.32852 4.41187 1.85765 4.32852 1.82738 1.88464 0.550484 1.85765 0.551566 0.550484 0.0892972 0.551566 0.0953512 1.85765 0.551566 1.82738 0.548632 0.551566 0.0953512 0.548632 0.101405 7.76552 4.32852 7.61144 4.2436 4.32852 1.82738 4.2436 1.79339 7.61144 4.2436 7.45736 4.15778 4.2436 1.79339 4.15778 1.75733 1.82738 0.548632 1.79339 0.540932 0.548632 0.101405 0.540932 0.100284 1.79339 0.540932 1.75733 0.530249 0.540932 0.100284 0.530249 0.0991634 7.45736 4.15778 7.30329 4.07177 4.15778 1.75733 4.07177 1.72081 7.30329 4.07177 7.14921 3.98586 4.07177 1.72081 3.98586 1.68448 1.75733 0.530249 1.72081 0.519084 0.530249 0.0991634 0.519084 0.096741 1.72081 0.519084 1.68448 0.508044 0.519084 0.096741 0.508044 0.0943186 7.14921 3.98586 6.99513 3.89999 3.98586 1.68448 3.89999 1.64826 6.99513 3.89999 6.84105 3.81411 3.89999 1.64826 3.81411 1.61206 1.68448 0.508044 1.64826 0.497192 0.508044 0.0943186 0.497192 0.0924221 1.64826 0.497192 1.61206 0.486453 0.497192 0.0924221 0.486453 0.0905256 6.84105 3.81411 6.68697 3.72827 3.81411 1.61206 3.72827 1.57592 6.68697 3.72827 6.5329 3.64239 3.72827 1.57592 3.64239 1.53973 1.61206 0.486453 1.57592 0.475791 0.486453 0.0905256 0.475791 0.0887757 1.57592 0.475791 1.53973 0.465064 0.475791 0.0887757 0.465064 0.0870257 6.5329 3.64239 6.37882 3.55602 3.64239 1.53973 3.55602 1.50291 6.37882 3.55602 6.22474 3.47018 3.55602 1.50291 3.47018 1.46663 1.53973 0.465064 1.50291 0.453854 0.465064 0.0870257 0.453854 0.0847083 1.50291 0.453854 1.46663 0.443033 0.453854 0.0847083 0.443033 0.0823908 6.22474 3.47018 6.07066 3.39274 3.47018 1.46663 3.39274 1.44031 6.07066 3.39274 5.91659 3.33885 3.39274 1.44031 3.33885 1.4417 1.46663 0.443033 1.44031 0.437764 0.443033 0.0823908 0.437764 0.0837997 1.44031 0.437764 1.4417 0.449174 0.437764 0.0837997 0.449174 0.0852087 5.91659 5.76251 3.33854 3.31528 5.76251 5.60843 3.31528 3.30572 3.33854 3.31528 1.44087 1.47818 3.31528 3.30572 1.47818 1.53331 1.44087 1.47818 0.448069 0.480297 1.47818 1.53331 0.480297 0.524897 0.448069 0.480297 0.0851277 0.0986579 0.480297 0.524897 0.0986579 0.112188 5.30027 5.1462 3.23961 3.19709 5.1462 4.99212 3.19709 3.20763 3.23961 3.19709 1.60154 1.60526 3.19709 3.20763 1.60526 1.60589 5.60843 5.45435 3.30572 3.28724 5.45435 5.30027 3.28724 3.23961 3.30572 3.28724 1.53331 1.57746 3.28724 3.23961 1.57746 1.60154 1.53331 1.57746 0.524897 0.566758 1.57746 1.60154 0.566758 0.599083 0.524897 0.566758 0.112188 0.128533 0.566758 0.599083 0.128533 0.144878 1.60589 1.59167 0.625018 0.627479 1.59167 1.55863 0.627479 0.619688 0.625018 0.627479 0.168183 0.176205 0.627479 0.619688 0.176205 0.184228 1.4417 0.449174 1.47914 0.481283 0.449174 0.0852087 0.481283 0.0976263 1.47914 0.481283 1.53436 0.525538 0.481283 0.0976263 0.525538 0.110044 0.0994243 0.0909294 0.0534194 0.047411 0.0909294 0.0824344 0.047411 0.0414026 0.0534194 0.047411 0.00741453 0.00389265 0.047411 0.0414026 0.00389265 0.00037077 1.60154 1.60526 0.599083 0.621264 1.60526 1.60589 0.621264 0.625018 0.599083 0.621264 0.144878 0.15653 0.621264 0.625018 0.15653 0.168183 0.112188 0.128533 0.055096 0.0612656 0.128533 0.144878 0.0612656 0.0674352 0.055096 0.0612656 -0.00199611 -0.00600176 0.0612656 0.0674352 -0.00600176 -0.0100074 5.91659 3.33885 5.76251 3.31568 3.33885 1.4417 3.31568 1.47914 5.76251 3.31568 5.60843 3.30626 3.31568 1.47914 3.30626 1.53436 0.144878 0.15653 0.0674352 0.0710261 0.15653 0.168183 0.0710261 0.0746169 0.0674352 0.0710261 -0.0100074 -0.0144783 0.0710261 0.0746169 -0.0144783 -0.0189492 1.33102 1.22976 0.525614 0.411614 1.22976 1.12849 0.411614 0.587371 0.525614 0.411614 0.15695 0.101601 0.411614 0.587371 0.101601 0.046252 5.60843 3.30626 5.45435 3.28798 3.30626 1.53436 3.28798 1.57848 5.45435 3.28798 5.30027 3.24017 3.28798 1.57848 3.24017 1.60183 1.53436 0.525538 1.57848 0.566976 0.525538 0.110044 0.566976 0.124937 1.57848 0.566976 1.60183 0.597367 0.566976 0.124937 0.597367 0.139829 5.30027 3.24017 5.1462 3.19608 3.24017 1.60183 3.19608 1.60234 5.1462 3.19608 4.99212 3.20142 3.19608 1.60234 3.20142 1.59235 1.60183 0.597367 1.60234 0.614088 0.597367 0.139829 0.614088 0.137868 1.60234 0.614088 1.59235 0.599824 0.614088 0.137868 0.599824 0.135907 1.59235 0.599824 1.5503 0.571259 0.599824 0.135907 0.571259 0.0865065 1.5503 0.571259 1.50274 0.507787 0.571259 0.0865065 0.507787 0.0371064 0.168183 0.176205 0.0746169 0.0824085 0.176205 0.184228 0.0824085 0.0902001 0.0746169 0.0824085 -0.0189492 -0.0113884 0.0824085 0.0902001 -0.0113884 -0.00382751 0.110044 0.04604 0.124937 0.0482887 0.04604 -0.017964 0.0482887 -0.0283593 0.124937 0.0482887 0.139829 0.0505374 0.0482887 -0.0283593 0.0505374 -0.0387545 0.139829 0.0505374 0.137868 0.0414181 0.0505374 -0.0387545 0.0414181 -0.0550318 0.137868 0.0414181 0.135907 0.0322988 0.0414181 -0.0550318 0.0322988 -0.0713091 0.135907 0.0322988 0.0865065 -0.0198751 0.0322988 -0.0713091 -0.0198751 -0.126257 0.0865065 -0.0198751 0.0371064 -0.0720489 -0.0198751 -0.126257 -0.0720489 -0.181204 0.0994249 0.0534079 0.0909318 0.0473842 0.0534079 0.00739101 0.0473842 0.00383665 0.0909318 0.0473842 0.0824387 0.0413605 0.0473842 0.00383665 0.0413605 0.00028229 0.0893099 0.0953735 0.0462683 0.0478181 0.0953735 0.101437 0.0478181 0.0493678 0.0462683 0.0478181 0.0032267 0.000262568 0.0478181 0.0493678 0.000262568 -0.00270157 1.55863 1.47361 0.619688 0.580726 1.47361 1.33102 0.580726 0.525614 0.619688 0.580726 0.184228 0.170589 0.580726 0.525614 0.170589 0.15695 0.112057 0.10574 0.0559148 0.0546671 0.10574 0.0994243 0.0546671 0.0534194 0.0559148 0.0546671 -0.000227036 0.00359375 0.0546671 0.0534194 0.00359375 0.00741453 0.112056 0.0559145 0.10574 0.0546612 0.0559145 -0.000227036 0.0546612 0.00358199 0.10574 0.0546612 0.0994249 0.0534079 0.0546612 0.00358199 0.0534079 0.00739101 0.101437 0.100327 0.0493678 0.0482574 0.100327 0.0992161 0.0482574 0.0471469 0.0493678 0.0482574 -0.00270157 -0.00381192 0.0482574 0.0471469 -0.00381192 -0.00492228 0.0992161 0.0967867 0.0471469 0.045816 0.0967867 0.0943572 0.045816 0.0444851 0.0471469 0.045816 -0.00492228 -0.00515464 0.045816 0.