# vtk DataFile Version 3.0
#This file was generated by the deal.II library on 2015/5/12 at 16: 3:47
ASCII
DATASET UNSTRUCTURED_GRID

POINTS 2356 double
0 0 0
5 0 0
0 5 0
5 5 0
5 0 0
10 0 0
5 5 0
10 5 0
0 5 0
5 5 0
0 10 0
5 10 0
5 5 0
10 5 0
5 10 0
10 10 0
0 -5 0
2.5 -5 0
0 -2.5 0
2.5 -2.5 0
2.5 -5 0
5 -5 0
2.5 -2.5 0
5 -2.5 0
0 -2.5 0
2.5 -2.5 0
0 0 0
2.5 0 0
2.5 -2.5 0
5 -2.5 0
2.5 0 0
5 0 0
5 -5 0
7.5 -5 0
5 -2.5 0
7.5 -2.5 0
7.5 -5 0
10 -5 0
7.5 -2.5 0
10 -2.5 0
5 -2.5 0
7.5 -2.5 0
5 0 0
7.5 0 0
7.5 -2.5 0
10 -2.5 0
7.5 0 0
10 0 0
-5 0 0
-2.5 0 0
-5 2.5 0
-2.5 2.5 0
-2.5 0 0
0 0 0
-2.5 2.5 0
0 2.5 0
-5 2.5 0
-2.5 2.5 0
-5 5 0
-2.5 5 0
-2.5 2.5 0
0 2.5 0
-2.5 5 0
0 5 0
-5 -5 0
-2.5 -5 0
-5 -2.5 0
-2.5 -2.5 0
-2.5 -5 0
0 -5 0
-2.5 -2.5 0
0 -2.5 0
-5 -2.5 0
-2.5 -2.5 0
-5 0 0
-2.5 0 0
-2.5 -2.5 0
0 -2.5 0
-2.5 0 0
0 0 0
-5 5 0
-2.5 5 0
-5 7.5 0
-2.5 7.5 0
-2.5 5 0
0 5 0
-2.5 7.5 0
0 7.5 0
-5 7.5 0
-2.5 7.5 0
-5 10 0
-2.5 10 0
-2.5 7.5 0
0 7.5 0
-2.5 10 0
0 10 0
2.5 -7.5 0
3.75 -7.5 0
2.5 -6.25 0
3.75 -6.25 0
3.75 -7.5 0
5 -7.5 0
3.75 -6.25 0
5 -6.25 0
2.5 -6.25 0
3.75 -6.25 0
2.5 -5 0
3.75 -5 0
3.75 -6.25 0
5 -6.25 0
3.75 -5 0
5 -5 0
-7.5 -7.5 0
-6.25 -7.5 0
-7.5 -6.25 0
-6.25 -6.25 0
-6.25 -7.5 0
-5 -7.5 0
-6.25 -6.25 0
-5 -6.25 0
-7.5 -6.25 0
-6.25 -6.25 0
-7.5 -5 0
-6.25 -5 0
-6.25 -6.25 0
-5 -6.25 0
-6.25 -5 0
-5 -5 0
0 -7.5 0
1.25 -7.5 0
0 -6.25 0
1.25 -6.25 0
1.25 -7.5 0
2.5 -7.5 0
1.25 -6.25 0
2.5 -6.25 0
0 -6.25 0
1.25 -6.25 0
0 -5 0
1.25 -5 0
1.25 -6.25 0
2.5 -6.25 0
1.25 -5 0
2.5 -5 0
-7.5 0 0
-6.25 0 0
-7.5 1.25 0
-6.25 1.25 0
-6.25 0 0
-5 0 0
-6.25 1.25 0
-5 1.25 0
-7.5 1.25 0
-6.25 1.25 0
-7.5 2.5 0
-6.25 2.5 0
-6.25 1.25 0
-5 1.25 0
-6.25 2.5 0
-5 2.5 0
-5 -7.5 0
-3.75 -7.5 0
-5 -6.25 0
-3.75 -6.25 0
-3.75 -7.5 0
-2.5 -7.5 0
-3.75 -6.25 0
-2.5 -6.25 0
-5 -6.25 0
-3.75 -6.25 0
-5 -5 0
-3.75 -5 0
-3.75 -6.25 0
-2.5 -6.25 0
-3.75 -5 0
-2.5 -5 0
5 -7.5 0
6.25 -7.5 0
5 -6.25 0
6.25 -6.25 0
6.25 -7.5 0
7.5 -7.5 0
6.25 -6.25 0
7.5 -6.25 0
5 -6.25 0
6.25 -6.25 0
5 -5 0
6.25 -5 0
6.25 -6.25 0
7.5 -6.25 0
6.25 -5 0
7.5 -5 0
-7.5 2.5 0
-6.25 2.5 0
-7.5 3.75 0
-6.25 3.75 0
-6.25 2.5 0
-5 2.5 0
-6.25 3.75 0
-5 3.75 0
-6.25 3.75 0
-5 3.75 0
-6.25 5 0
-5 5 0
-7.5 -5 0
-6.25 -5 0
-7.5 -3.75 0
-6.25 -3.75 0
-6.25 -5 0
-5 -5 0
-6.25 -3.75 0
-5 -3.75 0
-7.5 -3.75 0
-6.25 -3.75 0
-7.5 -2.5 0
-6.25 -2.5 0
-6.25 -3.75 0
-5 -3.75 0
-6.25 -2.5 0
-5 -2.5 0
-10 6.25 0
-8.75 6.25 0
-10 7.5 0
-8.75 7.5 0
7.5 -10 0
8.75 -10 0
7.5 -8.75 0
8.75 -8.75 0
8.75 -10 0
10 -10 0
8.75 -8.75 0
10 -8.75 0
7.5 -8.75 0
8.75 -8.75 0
7.5 -7.5 0
8.75 -7.5 0
8.75 -8.75 0
10 -8.75 0
8.75 -7.5 0
10 -7.5 0
-6.25 5 0
-5 5 0
-6.25 6.25 0
-5 6.25 0
-6.25 6.25 0
-5 6.25 0
-6.25 7.5 0
-5 7.5 0
-2.5 -7.5 0
-1.25 -7.5 0
-2.5 -6.25 0
-1.25 -6.25 0
-1.25 -7.5 0
0 -7.5 0
-1.25 -6.25 0
0 -6.25 0
-2.5 -6.25 0
-1.25 -6.25 0
-2.5 -5 0
-1.25 -5 0
-1.25 -6.25 0
0 -6.25 0
-1.25 -5 0
0 -5 0
-7.5 -2.5 0
-6.25 -2.5 0
-7.5 -1.25 0
-6.25 -1.25 0
-6.25 -2.5 0
-5 -2.5 0
-6.25 -1.25 0
-5 -1.25 0
-7.5 -1.25 0
-6.25 -1.25 0
-7.5 0 0
-6.25 0 0
-6.25 -1.25 0
-5 -1.25 0
-6.25 0 0
-5 0 0
-10 7.5 0
-8.75 7.5 0
-10 8.75 0
-8.75 8.75 0
-8.75 7.5 0
-7.5 7.5 0
-8.75 8.75 0
-7.5 8.75 0
-10 8.75 0
-8.75 8.75 0
-10 10 0
-8.75 10 0
-8.75 8.75 0
-7.5 8.75 0
-8.75 10 0
-7.5 10 0
-7.5 7.5 0
-6.25 7.5 0
-7.5 8.75 0
-6.25 8.75 0
-6.25 7.5 0
-5 7.5 0
-6.25 8.75 0
-5 8.75 0
-7.5 8.75 0
-6.25 8.75 0
-7.5 10 0
-6.25 10 0
-6.25 8.75 0
-5 8.75 0
-6.25 10 0
-5 10 0
8.75 -7.5 0
10 -7.5 0
8.75 -6.25 0
10 -6.25 0
7.5 -6.25 0
8.75 -6.25 0
7.5 -5 0
8.75 -5 0
8.75 -6.25 0
10 -6.25 0
8.75 -5 0
10 -5 0
-7.5 -8.75 0
-6.875 -8.75 0
-7.5 -8.125 0
-6.875 -8.125 0
-6.875 -8.75 0
-6.25 -8.75 0
-6.875 -8.125 0
-6.25 -8.125 0
-7.5 -8.125 0
-6.875 -8.125 0
-7.5 -7.5 0
-6.875 -7.5 0
-6.875 -8.125 0
-6.25 -8.125 0
-6.875 -7.5 0
-6.25 -7.5 0
0 -8.75 0
0.625 -8.75 0
0 -8.125 0
0.625 -8.125 0
0.625 -8.75 0
1.25 -8.75 0
0.625 -8.125 0
1.25 -8.125 0
0 -8.125 0
0.625 -8.125 0
0 -7.5 0
0.625 -7.5 0
0.625 -8.125 0
1.25 -8.125 0
0.625 -7.5 0
1.25 -7.5 0
1.25 -8.75 0
1.875 -8.75 0
1.25 -8.125 0
1.875 -8.125 0
1.875 -8.75 0
2.5 -8.75 0
1.875 -8.125 0
2.5 -8.125 0
1.25 -8.125 0
1.875 -8.125 0
1.25 -7.5 0
1.875 -7.5 0
1.875 -8.125 0
2.5 -8.125 0
1.875 -7.5 0
2.5 -7.5 0
-6.25 -8.75 0
-5.625 -8.75 0
-6.25 -8.125 0
-5.625 -8.125 0
-5.625 -8.75 0
-5 -8.75 0
-5.625 -8.125 0
-5 -8.125 0
-6.25 -8.125 0
-5.625 -8.125 0
-6.25 -7.5 0
-5.625 -7.5 0
-5.625 -8.125 0
-5 -8.125 0
-5.625 -7.5 0
-5 -7.5 0
-8.75 0 0
-8.125 0 0
-8.75 0.625 0
-8.125 0.625 0
-8.125 0 0
-7.5 0 0
-8.125 0.625 0
-7.5 0.625 0
-8.75 0.625 0
-8.125 0.625 0
-8.75 1.25 0
-8.125 1.25 0
-8.125 0.625 0
-7.5 0.625 0
-8.125 1.25 0
-7.5 1.25 0
-8.75 1.25 0
-8.125 1.25 0
-8.75 1.875 0
-8.125 1.875 0
-8.125 1.25 0
-7.5 1.25 0
-8.125 1.875 0
-7.5 1.875 0
-8.75 1.875 0
-8.125 1.875 0
-8.75 2.5 0
-8.125 2.5 0
-8.125 1.875 0
-7.5 1.875 0
-8.125 2.5 0
-7.5 2.5 0
-8.75 -7.5 0
-8.125 -7.5 0
-8.75 -6.875 0
-8.125 -6.875 0
-8.125 -7.5 0
-7.5 -7.5 0
-8.125 -6.875 0
-7.5 -6.875 0
-8.75 -6.875 0
-8.125 -6.875 0
-8.75 -6.25 0
-8.125 -6.25 0
-8.125 -6.875 0
-7.5 -6.875 0
-8.125 -6.25 0
-7.5 -6.25 0
-8.75 -6.25 0
-8.125 -6.25 0
-8.75 -5.625 0
-8.125 -5.625 0
-8.125 -6.25 0
-7.5 -6.25 0
-8.125 -5.625 0
-7.5 -5.625 0
-8.75 -5.625 0
-8.125 -5.625 0
-8.75 -5 0
-8.125 -5 0
-8.125 -5.625 0
-7.5 -5.625 0
-8.125 -5 0
-7.5 -5 0
-5 -8.75 0
-4.375 -8.75 0
-5 -8.125 0
-4.375 -8.125 0
-4.375 -8.75 0
-3.75 -8.75 0
-4.375 -8.125 0
-3.75 -8.125 0
-5 -8.125 0
-4.375 -8.125 0
-5 -7.5 0
-4.375 -7.5 0
-4.375 -8.125 0
-3.75 -8.125 0
-4.375 -7.5 0
-3.75 -7.5 0
-8.75 -8.75 0
-8.125 -8.75 0
-8.75 -8.125 0
-8.125 -8.125 0
-8.125 -8.75 0
-7.5 -8.75 0
-8.125 -8.125 0
-7.5 -8.125 0
-8.75 -8.125 0
-8.125 -8.125 0
-8.75 -7.5 0
-8.125 -7.5 0
-8.125 -8.125 0
-7.5 -8.125 0
-8.125 -7.5 0
-7.5 -7.5 0
-3.75 -8.75 0
-3.125 -8.75 0
-3.75 -8.125 0
-3.125 -8.125 0
-3.125 -8.75 0
-2.5 -8.75 0
-3.125 -8.125 0
-2.5 -8.125 0
-3.75 -8.125 0
-3.125 -8.125 0
-3.75 -7.5 0
-3.125 -7.5 0
-3.125 -8.125 0
-2.5 -8.125 0
-3.125 -7.5 0
-2.5 -7.5 0
-8.125 2.5 0
-7.5 2.5 0
-8.125 3.125 0
-7.5 3.125 0
-8.125 3.125 0
-7.5 3.125 0
-8.125 3.75 0
-7.5 3.75 0
-8.75 -5 0
-8.125 -5 0
-8.75 -4.375 0
-8.125 -4.375 0
-8.125 -5 0
-7.5 -5 0
-8.125 -4.375 0
-7.5 -4.375 0
-8.75 -4.375 0
-8.125 -4.375 0
-8.75 -3.75 0
-8.125 -3.75 0
-8.125 -4.375 0
-7.5 -4.375 0
-8.125 -3.75 0
-7.5 -3.75 0
-10 3.75 0
-9.375 3.75 0
-10 4.375 0
-9.375 4.375 0
-10 4.375 0
-9.375 4.375 0
-10 5 0
-9.375 5 0
-9.375 4.375 0
-8.75 4.375 0
-9.375 5 0
-8.75 5 0
-8.75 3.75 0
-8.125 3.75 0
-8.75 4.375 0
-8.125 4.375 0
-8.125 3.75 0
-7.5 3.75 0
-8.125 4.375 0
-7.5 4.375 0
-8.75 4.375 0
-8.125 4.375 0
-8.75 5 0
-8.125 5 0
-8.125 4.375 0
-7.5 4.375 0
-8.125 5 0
-7.5 5 0
2.5 -8.75 0
3.125 -8.75 0
2.5 -8.125 0
3.125 -8.125 0
3.125 -8.75 0
3.75 -8.75 0
3.125 -8.125 0
3.75 -8.125 0
2.5 -8.125 0
3.125 -8.125 0
2.5 -7.5 0
3.125 -7.5 0
3.125 -8.125 0
3.75 -8.125 0
3.125 -7.5 0
3.75 -7.5 0
5 -8.125 0
5.625 -8.125 0
5 -7.5 0
5.625 -7.5 0
5.625 -8.125 0
6.25 -8.125 0
5.625 -7.5 0
6.25 -7.5 0
5 -10 0
5.625 -10 0
5 -9.375 0
5.625 -9.375 0
5.625 -10 0
6.25 -10 0
5.625 -9.375 0
6.25 -9.375 0
5.625 -9.375 0
6.25 -9.375 0
5.625 -8.75 0
6.25 -8.75 0
-2.5 -8.75 0
-1.875 -8.75 0
-2.5 -8.125 0
-1.875 -8.125 0
-1.875 -8.75 0
-1.25 -8.75 0
-1.875 -8.125 0
-1.25 -8.125 0
-2.5 -8.125 0
-1.875 -8.125 0
-2.5 -7.5 0
-1.875 -7.5 0
-1.875 -8.125 0
-1.25 -8.125 0
-1.875 -7.5 0
-1.25 -7.5 0
4.375 -10 0
5 -10 0
4.375 -9.375 0
5 -9.375 0
4.375 -9.375 0
5 -9.375 0
4.375 -8.75 0
5 -8.75 0
-1.25 -8.75 0
-0.625 -8.75 0
-1.25 -8.125 0
-0.625 -8.125 0
-0.625 -8.75 0
0 -8.75 0
-0.625 -8.125 0
0 -8.125 0
-1.25 -8.125 0
-0.625 -8.125 0
-1.25 -7.5 0
-0.625 -7.5 0
-0.625 -8.125 0
0 -8.125 0
-0.625 -7.5 0
0 -7.5 0
-8.75 -3.75 0
-8.125 -3.75 0
-8.75 -3.125 0
-8.125 -3.125 0
-8.125 -3.75 0
-7.5 -3.75 0
-8.125 -3.125 0
-7.5 -3.125 0
-8.75 -3.125 0
-8.125 -3.125 0
-8.75 -2.5 0
-8.125 -2.5 0
-8.125 -3.125 0
-7.5 -3.125 0
-8.125 -2.5 0
-7.5 -2.5 0
-8.75 -2.5 0
-8.125 -2.5 0
-8.75 -1.875 0
-8.125 -1.875 0
-8.125 -2.5 0
-7.5 -2.5 0
-8.125 -1.875 0
-7.5 -1.875 0
-8.75 -1.875 0
-8.125 -1.875 0
-8.75 -1.25 0
-8.125 -1.25 0
-8.125 -1.875 0
-7.5 -1.875 0
-8.125 -1.25 0
-7.5 -1.25 0
-8.75 -1.25 0
-8.125 -1.25 0
-8.75 -0.625 0
-8.125 -0.625 0
-8.125 -1.25 0
-7.5 -1.25 0
-8.125 -0.625 0
-7.5 -0.625 0
-8.75 -0.625 0
-8.125 -0.625 0
-8.75 0 0
-8.125 0 0
-8.125 -0.625 0
-7.5 -0.625 0
-8.125 0 0
-7.5 0 0
3.75 -8.75 0
4.375 -8.75 0
3.75 -8.125 0
4.375 -8.125 0
3.75 -8.125 0
4.375 -8.125 0
3.75 -7.5 0
4.375 -7.5 0
4.375 -8.125 0
5 -8.125 0
4.375 -7.5 0
5 -7.5 0
-8.75 5 0
-8.125 5 0
-8.75 5.625 0
-8.125 5.625 0
-8.75 5.625 0
-8.125 5.625 0
-8.75 6.25 0
-8.125 6.25 0
-8.125 5.625 0
-7.5 5.625 0
-8.125 6.25 0
-7.5 6.25 0
6.25 -8.75 0
6.875 -8.75 0
6.25 -8.125 0
6.875 -8.125 0
6.875 -8.75 0
7.5 -8.75 0
6.875 -8.125 0
7.5 -8.125 0
6.25 -8.125 0
6.875 -8.125 0
6.25 -7.5 0
6.875 -7.5 0
6.875 -8.125 0
7.5 -8.125 0
6.875 -7.5 0
7.5 -7.5 0
6.25 -10 0
6.875 -10 0
6.25 -9.375 0
6.875 -9.375 0
6.875 -10 0
7.5 -10 0
6.875 -9.375 0
7.5 -9.375 0
6.875 -9.375 0
7.5 -9.375 0
6.875 -8.75 0
7.5 -8.75 0
-7.5 3.75 0
-6.875 3.75 0
-7.5 4.375 0
-6.875 4.375 0
-6.875 3.75 0
-6.25 3.75 0
-6.875 4.375 0
-6.25 4.375 0
-7.5 4.375 0
-6.875 4.375 0
-7.5 5 0
-6.875 5 0
-6.875 4.375 0
-6.25 4.375 0
-6.875 5 0
-6.25 5 0
-6.875 5 0
-6.25 5 0
-6.875 5.625 0
-6.25 5.625 0
-7.5 5.625 0
-6.875 5.625 0
-7.5 6.25 0
-6.875 6.25 0
-6.875 5.625 0
-6.25 5.625 0
-6.875 6.25 0
-6.25 6.25 0
-10 5 0
-9.375 5 0
-10 5.625 0
-9.375 5.625 0
-9.375 5 0
-8.75 5 0
-9.375 5.625 0
-8.75 5.625 0
-10 5.625 0
-9.375 5.625 0
-10 6.25 0
-9.375 6.25 0
-9.375 5.625 0
-8.75 5.625 0
-9.375 6.25 0
-8.75 6.25 0
-8.75 6.25 0
-8.125 6.25 0
-8.75 6.875 0
-8.125 6.875 0
-8.125 6.25 0
-7.5 6.25 0
-8.125 6.875 0
-7.5 6.875 0
-8.75 6.875 0
-8.125 6.875 0
-8.75 7.5 0
-8.125 7.5 0
-8.125 6.875 0
-7.5 6.875 0
-8.125 7.5 0
-7.5 7.5 0
-7.5 6.25 0
-6.875 6.25 0
-7.5 6.875 0
-6.875 6.875 0
-6.875 6.25 0
-6.25 6.25 0
-6.875 6.875 0
-6.25 6.875 0
[...]
POINT_DATA 2356
SCALARS V double 1
LOOKUP_TABLE default
0.0164787 -0.00777837 -0.025496 0.00708546 -0.00777837 0 0.00708546 0 -0.025496 0.00708546 0 0 0.00708546 0 0 0 0.000976705 0.00929905 0.0094591 0.00757525 0.00929905 0.0247105 0.00757525 0.00564572 0.0094591 0.00757525 0.0164787 0.00435017 0.00757525 0.00564572 0.00435017 -0.00777837 0.0247105 -0.00548429 0.00564572 0.00713717 -0.00548429 0 0.00713717 0 0.00564572 0.00713717 -0.00777837 -0.00388919 0.00713717 0 -0.00388919 0 -0.00338414 0.00700206 0.0575459 0.0301767 0.00700206 0.0164787 0.0301767 -0.00450866 0.0575459 0.0301767 0.110273 0.0501468 0.0301767 -0.00450866 0.0501468 -0.025496 0.00754172 0.00295453 0.000238973 0.00608883 0.00295453 0.000976705 0.00608883 0.0094591 0.000238973 0.00608883 -0.00338414 0.00700206 0.00608883 0.0094591 0.00700206 0.0164787 0.110273 0.0501468 0.0512113 0.0265141 0.0501468 -0.025496 0.0265141 -0.012748 0.0512113 0.0265141 0 0 0.0265141 -0.012748 0 0 0.0215602 0.170653 0.0152161 0.082985 0.170653 0.163828 0.082985 0.144643 0.0152161 0.082985 0.00929905 0.0170048 0.082985 0.144643 0.0170048 0.0247105 -0.00076048 -0.00799262 -0.00841146 -0.00603783 -0.00799262 -0.00216594 -0.00603783 0.000335713 -0.00841146 -0.00603783 -0.00293351 -0.000151066 -0.00603783 0.000335713 -0.000151066 0.00754172 0.00442315 0.00831438 0.00164004 0.00255617 0.00831438 0.0215602 0.00255617 0.0152161 0.00164004 0.00255617 0.000976705 0.00513788 0.00255617 0.0152161 0.00513788 0.00929905 -0.012408 -0.00927182 -0.0379878 -0.0153518 -0.00927182 -0.00338414 -0.0153518 0.0270809 -0.0379878 -0.0153518 -0.104878 -0.0218223 -0.0153518 0.0270809 -0.0218223 0.0575459 -0.00216594 0.00247218 0.000335713 -0.00228011 0.00247218 -0.000463464 -0.00228011 0.000748292 0.000335713 -0.00228011 0.00754172 0.00524813 -0.00228011 0.000748292 0.00524813 0.00295453 0.163828 -0.172704 0.144643 -0.0467937 -0.172704 -0.405782 -0.0467937 -0.219853 0.144643 -0.0467937 0.0247105 0.00961308 -0.0467937 -0.219853 0.00961308 -0.00548429 -0.104878 -0.0218223 -0.431278 -0.164145 -0.0218223 0.0575459 -0.164145 0.0839094 -0.164145 0.0839094 -0.323367 0.110273 -0.00293351 -0.000151066 0.00321495 -0.00241475 -0.000151066 0.00754172 -0.00241475 0.00389035 0.00321495 -0.00241475 0.00129243 0.000531443 -0.00241475 0.00389035 0.000531443 0.000238973 2.84924 1.10148 2.22984 0.816187 2.22984 1.61044 0.763956 0.720224 1.61044 0.99104 0.720224 0.37164 0.763956 0.720224 -0.405782 -0.204724 0.720224 0.37164 -0.204724 0 -0.323367 0.110273 -0.307794 0.0807421 -0.307794 0.0807421 -0.263774 0.0512113 -0.000463464 0.00122178 0.000748292 0.00131381 0.00122178 0.00442315 0.00131381 0.00164004 0.000748292 0.00131381 0.00295453 0.00196562 0.00131381 0.00164004 0.00196562 0.000976705 0.00129243 0.000531443 -0.00472628 -0.00406985 0.000531443 0.000238973 -0.00406985 -0.00157258 -0.00472628 -0.00406985 -0.012408 -0.00927182 -0.00406985 -0.00157258 -0.00927182 -0.00338414 2.22984 0.816187 1.61044 0.688746 0.816187 -0.53793 0.688746 -0.26464 1.61044 0.688746 0.99104 0.37164 0.688746 -0.26464 0.37164 0 -0.53793 -0.263774 -0.26464 -0.135591 -0.263774 0.0512113 -0.135591 0.0256056 -0.26464 -0.135591 0 0 -0.135591 0.0256056 0 0 -0.204724 0 -0.11242 0 -0.219853 -0.11242 -0.00548429 -0.00274214 -0.11242 0 -0.00274214 0 0.00129679 -0.00711867 0.0153103 0.0208371 -0.00711867 0.000608094 0.0208371 0.026333 0.0153103 0.0208371 -0.00076048 -0.00437655 0.0208371 0.026333 -0.00437655 -0.00799262 0.0229068 0.016401 0.00522099 0.0134298 0.016401 0.0116955 0.0134298 0.00584858 0.00522099 0.0134298 0.00442315 0.00636876 0.0134298 0.00584858 0.00636876 0.00831438 0.0116955 0.0284467 0.00584858 -0.0182395 0.0284467 0.0369946 -0.0182395 -0.00141733 0.00584858 -0.0182395 0.00831438 0.0149373 -0.0182395 -0.00141733 0.0149373 0.0215602 0.000608094 0.00118738 0.026333 0.0259327 0.00118738 -0.00311084 0.0259327 0.0252279 0.026333 0.0259327 -0.00799262 -0.00507928 0.0259327 0.0252279 -0.00507928 -0.00216594 0.0248149 -0.00150696 0.0175042 -0.00190739 -0.00150696 -0.012408 -0.00190739 -0.0251979 0.0175042 -0.00190739 0.00903947 -0.0236165 -0.00190739 -0.0251979 -0.0236165 -0.0379878 0.00903947 -0.0236165 0.0148589 -0.0603188 -0.0236165 -0.0379878 -0.0603188 -0.0714328 0.0148589 -0.0603188 -0.107164 -0.159513 -0.0603188 -0.0714328 -0.159513 -0.104878 0.00130086 0.0152942 -0.00709487 0.0207528 0.0152942 -0.00076048 0.0207528 -0.00458597 -0.00709487 0.0207528 0.000656075 0.0261606 0.0207528 -0.00458597 0.0261606 -0.00841146 0.000656075 0.0261606 0.00126394 0.0256597 0.0261606 -0.00841146 0.0256597 -0.00567248 0.00126394 0.0256597 -0.00303643 0.0249594 0.0256597 -0.00567248 0.0249594 -0.00293351 -0.00311084 0.0110858 0.0252279 0.0201097 0.0110858 0.0327132 0.0201097 0.00414521 0.0252279 0.0201097 -0.00216594 0.000153116 0.0201097 0.00414521 0.000153116 0.00247218 0.00949504 0.0312685 0.0312683 0.026705 0.0312685 0.00129679 0.026705 0.0153103 0.0312683 0.026705 0.00130086 0.0152942 0.026705 0.0153103 0.0152942 -0.00076048 0.0327132 0.031017 0.00414521 0.000855843 0.031017 0.0291524 0.000855843 0.000521001 0.00414521 0.000855843 0.00247218 0.00100436 0.000855843 0.000521001 0.00100436 -0.000463464 -0.159513 -0.104878 -0.454847 -0.268078 -0.454847 -0.268078 -0.647956 -0.431278 -0.00303643 0.0249594 0.0110791 0.0200529 0.0249594 -0.00293351 0.0200529 0.000140723 0.0110791 0.0200529 0.0326151 0.00439782 0.0200529 0.000140723 0.00439782 0.00321495 4.08804 1.42942 3.77834 1.97007 3.77834 1.97007 3.46864 2.35334 1.97007 0.370082 2.35334 1.23804 -0.448555 -0.647956 0.370082 -0.251032 -0.647956 -0.431278 -0.251032 -0.527792 0.370082 -0.251032 1.23804 0.264912 -0.251032 -0.527792 0.264912 -0.624306 0.0369946 0.0228624 -0.00141733 0.0384336 0.0228624 -0.00788639 0.0384336 0.0623154 -0.00141733 0.0384336 0.0215602 0.0961068 0.0384336 0.0623154 0.0961068 0.170653 -0.158825 -0.319501 0.163828 -0.00443775 -0.319501 -0.385908 -0.00443775 -0.172704 3.46864 3.15894 1.2023 1.21479 3.15894 2.84924 1.21479 1.18716 1.21479 1.18716 -0.303131 -0.358025 0.0291524 0.0281815 0.000521001 0.000888131 0.0281815 0.0272188 0.000888131 0.0016814 0.000521001 0.000888131 -0.000463464 0.000379158 0.000888131 0.0016814 0.000379158 0.00122178 3.77834 3.46864 0.769354 1.2023 0.769354 1.2023 -0.11947 -0.233449 0.0272188 0.0266368 0.0016814 0.00197687 0.0266368 0.0229068 0.00197687 0.00522099 0.0016814 0.00197687 0.00122178 0.00282246 0.00197687 0.00522099 0.00282246 0.00442315 0.0326151 0.00439782 0.0307918 0.00153782 0.00439782 0.00321495 0.00153782 0.00225369 0.0307918 0.00153782 0.0289254 0.0011867 0.00153782 0.00225369 0.0011867 0.00129243 0.0289254 0.0011867 0.0284092 8.98969e-05 0.0011867 0.00129243 8.98969e-05 -0.00171693 0.0284092 8.98969e-05 0.0280422 -0.00106336 8.98969e-05 -0.00171693 -0.00106336 -0.00472628 0.0280422 -0.00106336 0.0279819 -0.0021678 -0.00106336 -0.00472628 -0.0021678 -0.00856716 0.0279819 -0.0021678 0.0248149 -0.00150696 -0.0021678 -0.00856716 -0.00150696 -0.012408 -0.00788639 -0.11947 0.0623154 -0.0281673 0.0623154 -0.0281673 0.170653 0.167241 -0.0281673 -0.158825 0.167241 0.163828 1.23804 0.264912 1.16976 0.266712 1.16976 0.266712 1.10148 0.25143 0.266712 -0.584526 0.25143 -0.59862 -0.358025 0.190868 -0.385908 -0.13829 0.190868 0.763956 -0.13829 0.153065 -0.385908 -0.13829 -0.172704 -0.289243 -0.13829 0.153065 -0.289243 -0.405782 2.84924 2.53954 1.18716 1.33681 2.53954 2.22984 1.33681 1.4969 1.33681 1.4969 0.190868 0.763956 -0.431278 -0.297712 -0.527792 -0.385774 -0.297712 -0.164145 -0.385774 -0.243756 -0.527792 -0.385774 -0.624306 -0.473837 -0.385774 -0.243756 -0.473837 -0.323367 -0.473837 -0.323367 -0.494704 -0.315581 -0.584526 -0.494704 -0.59862 -0.453207 -0.494704 -0.315581 -0.453207 -0.307794 3.46864 2.35334 3.15894 2.16435 2.35334 1.23804 2.16435 1.16976 3.15894 2.16435 2.84924 1.97536 2.16435 1.16976 1.97536 1.10148 1.10148 0.25143 0.958834 0.195279 0.25143 -0.59862 0.195279 -0.568275 0.958834 0.195279 0.816187 0.139128 0.195279 -0.568275 0.139128 -0.53793 -0.59862 -0.453207 -0.568275 -0.427029 -0.453207 -0.307794 -0.427029 -0.285784 -0.568275 -0.427029 -0.53793 -0.400852 -0.427029 -0.285784 -0.400852 -0.263774 -0.405782 -0.305253 -0.312818 -0.235695 -0.305253 -0.204724 -0.235695 -0.158572 -0.312818 -0.235695 -0.219853 -0.166137 -0.235695 -0.158572 -0.166137 -0.11242 10.9014 10.7466 10.7466 7.55109 10.7466 10.5917 7.55109 5.54588 10.7466 7.55109 10.5917 5.54588 7.55109 5.54588 5.54588 2.42949 10.5917 10.4369 5.54588 4.82301 10.4369 10.282 4.82301 4.68838 5.54588 4.82301 2.42949 1.37112 4.82301 4.68838 1.37112 1.2579 10.5917 5.54588 10.4369 4.82301 5.54588 2.42949 4.82301 1.37112 10.4369 4.82301 10.282 4.68838 4.82301 1.37112 4.68838 1.2579 2.42949 1.37112 1.37112 0.219167 1.37112 1.2579 0.219167 0.115408 1.37112 0.219167 1.2579 0.115408 0.219167 0.115408 0.115408 0.00949504 10.282 10.1272 4.68838 4.63946 10.1272 9.97234 4.63946 4.56697 4.68838 4.63946 1.2579 1.28029 4.63946 4.56697 1.28029 1.25983 9.97234 9.81749 4.56697 4.48986 9.81749 9.66264 4.48986 4.41774 4.56697 4.48986 1.25983 1.22767 4.48986 4.41774 1.22767 1.19944 1.19944 1.1755 0.122305 0.107762 1.1755 1.15542 0.107762 0.101912 0.122305 0.107762 0.00129679 -0.00291094 0.107762 0.101912 -0.00291094 -0.00711867 1.15542 1.1369 0.101912 0.101642 1.1369 1.11819 0.101642 0.101899 0.101912 0.101642 -0.00711867 -0.00325529 0.101642 0.101899 -0.00325529 0.000608094 10.282 4.68838 10.1272 4.63946 4.68838 1.2579 4.63946 1.28029 10.1272 4.63946 9.97234 4.56697 4.63946 1.28029 4.56697 1.25984 1.11819 1.09911 0.101899 0.100527 1.09911 1.07988 0.100527 0.0984959 0.101899 0.100527 0.000608094 0.000897735 0.100527 0.0984959 0.000897735 0.00118738 9.97234 4.56697 9.81749 4.48986 4.56697 1.25984 4.48986 1.22767 9.81749 4.48986 9.66264 4.41774 4.48986 1.22767 4.41774 1.19945 1.07988 1.06046 0.0984959 0.0957434 1.06046 1.04086 0.0957434 0.0933109 0.0984959 0.0957434 0.00118738 -0.000961732 0.0957434 0.0933109 -0.000961732 -0.00311084 9.66264 9.50779 4.41774 4.34888 9.50779 9.35294 4.34888 4.27955 4.41774 4.34888 1.19944 1.1755 4.34888 4.27955 1.1755 1.15542 9.35294 9.19809 4.27955 4.20876 9.19809 9.04324 4.20876 4.13775 4.27955 4.20876 1.15542 1.1369 4.20876 4.13775 1.1369 1.11819 1.19945 0.12231 1.1755 0.107776 0.12231 0.00130086 0.107776 -0.00289701 1.1755 0.107776 1.15543 0.101938 0.107776 -0.00289701 0.101938 -0.00709487 1.15543 0.101938 1.13691 0.10168 0.101938 -0.00709487 0.10168 -0.0032194 1.13691 0.10168 1.11821 0.101951 0.10168 -0.0032194 0.101951 0.000656075 9.04324 8.88839 4.13775 4.06693 8.88839 8.73354 4.06693 3.99606 4.13775 4.06693 1.11819 1.09911 4.06693 3.99606 1.09911 1.07988 8.73354 8.57869 3.99606 3.92526 8.57869 8.42384 3.92526 3.85448 3.99606 3.92526 1.07988 1.06046 3.92526 3.85448 1.06046 1.04086 1.11821 0.101951 1.09913 0.100593 0.101951 0.000656075 0.100593 0.000960007 1.09913 0.100593 1.07991 0.0985742 0.100593 0.000960007 0.0985742 0.00126394 1.07991 0.0985742 1.06049 0.0958296 0.0985742 0.00126394 0.0958296 -0.000886244 1.06049 0.0958296 1.04089 0.0933877 0.0958296 -0.000886244 0.0933877 -0.00303643 9.66264 4.41774 9.50779 4.34888 4.41774 1.19945 4.34888 1.1755 9.50779 4.34888 9.35294 4.27955 4.34888 1.1755 4.27955 1.15543 1.04086 1.02667 0.0933109 0.103208 1.02667 1.02085 0.103208 0.131049 0.0933109 0.103208 -0.00311084 0.0039875 0.103208 0.131049 0.0039875 0.0110858 9.35294 4.27955 9.19809 4.20876 4.27955 1.15543 4.20876 1.13691 9.19809 4.20876 9.04324 4.13775 4.20876 1.13691 4.13775 1.11821 1.2579 1.28029 0.115408 0.160512 1.28029 1.25983 0.160512 0.157171 0.115408 0.160512 0.00949504 0.0203818 0.160512 0.157171 0.0203818 0.0312685 9.04324 4.13775 8.88839 4.06693 4.13775 1.11821 4.06693 1.09913 8.88839 4.06693 8.73354 3.99606 4.06693 1.09913 3.99606 1.07991 1.25983 1.22767 0.157171 0.140277 1.22767 1.19944 0.140277 0.122305 0.157171 0.140277 0.0312685 0.0162827 0.140277 0.122305 0.0162827 0.00129679 8.73354 3.99606 8.57869 3.92526 3.99606 1.07991 3.92526 1.06049 8.57869 3.92526 8.42384 3.85448 3.92526 1.06049 3.85448 1.04089 1.2579 0.115408 1.28029 0.160512 0.115408 0.00949504 0.160512 0.0203817 1.28029 0.160512 1.25984 0.157171 0.160512 0.0203817 0.157171 0.0312683 8.42384 8.26899 3.85448 3.78216 8.26899 8.11414 3.78216 3.70874 3.85448 3.78216 1.04086 1.02667 3.78216 3.70874 1.02667 1.02085 8.11414 7.95929 3.70874 3.63742 7.95929 7.80444 3.63742 3.56794 3.70874 3.63742 1.02085 1.01342 3.63742 3.56794 1.01342 0.999293 1.25984 0.157171 1.22767 0.140278 0.157171 0.0312683 0.140278 0.0162846 1.22767 0.140278 1.19945 0.12231 0.140278 0.0162846 0.12231 0.00130086 1.02085 1.01342 0.131049 0.154254 1.01342 0.999293 0.154254 0.161226 0.131049 0.154254 0.0110858 0.0218995 0.154254 0.161226 0.0218995 0.0327132 7.80444 7.64959 3.56794 3.49744 7.64959 7.49474 3.49744 3.42621 3.56794 3.49744 0.999293 0.980258 3.49744 3.42621 0.980258 0.959463 7.49474 7.33989 3.42621 3.35534 7.33989 7.18504 3.35534 3.28467 3.42621 3.35534 0.959463 0.939343 3.35534 3.28467 0.939343 0.919781 0.999293 0.980258 0.161226 0.159551 0.980258 0.959463 0.159551 0.155314 0.161226 0.159551 0.0327132 0.0318651 0.159551 0.155314 0.0318651 0.031017 0.959463 0.939343 0.155314 0.151745 0.939343 0.919781 0.151745 0.148712 0.155314 0.151745 0.031017 0.0300847 0.151745 0.148712 0.0300847 0.0291524 7.18504 7.03019 3.28467 3.2139 7.03019 6.87534 3.2139 3.14304 3.28467 3.2139 0.919781 0.900011 3.2139 3.14304 0.900011 0.880069 6.87534 6.72049 3.14304 3.07217 6.72049 6.56564 3.07217 3.00158 3.14304 3.07217 0.880069 0.860173 3.07217 3.00158 0.860173 0.840555 1.04089 0.0933877 1.02668 0.103253 0.0933877 -0.00303643 0.103253 0.00402131 1.02668 0.103253 1.02085 0.131047 0.103253 0.00402131 0.131047 0.0110791 0.919781 0.900011 0.148712 0.145562 0.900011 0.880069 0.145562 0.142334 0.148712 0.145562 0.0291524 0.0286669 0.145562 0.142334 0.0286669 0.0281815 6.56564 6.41079 3.00158 2.93105 6.41079 6.25594 2.93105 2.8586 3.00158 2.93105 0.840555 0.821223 2.93105 2.8586 0.821223 0.798543 6.25594 6.10109 2.8586 2.78392 6.10109 5.94624 2.78392 2.74292 2.8586 2.78392 0.798543 0.77483 2.78392 2.74292 0.77483 0.784649 0.880069 0.860173 0.142334 0.139132 0.860173 0.840555 0.139132 0.136141 0.142334 0.139132 0.0281815 0.0277001 0.139132 0.136141 0.0277001 0.0272188 0.840555 0.821223 0.136141 0.133202 0.821223 0.798543 0.133202 0.128593 0.136141 0.133202 0.0272188 0.0269278 0.133202 0.128593 0.0269278 0.0266368 8.42384 3.85448 8.26899 3.78216 3.85448 1.04089 3.78216 1.02668 8.26899 3.78216 8.11414 3.70874 3.78216 1.02668 3.70874 1.02085 0.798543 0.77483 0.128593 0.122842 0.77483 0.784649 0.122842 0.1297 0.128593 0.122842 0.0266368 0.0247718 0.122842 0.1297 0.0247718 0.0229068 8.11414 3.70874 7.95929 3.63742 3.70874 1.02085 3.63742 1.0134 7.95929 3.63742 7.80444 3.56794 3.63742 1.0134 3.56794 0.999256 1.02085 0.131047 1.0134 0.154204 0.131047 0.0110791 0.154204 0.0218471 1.0134 0.154204 0.999256 0.161128 0.154204 0.0218471 0.161128 0.0326151 7.80444 3.56794 7.64959 3.49744 3.56794 0.999256 3.49744 0.980203 7.64959 3.49744 7.49474 3.42621 3.49744 0.980203 3.42621 0.959393 0.999256 0.161128 0.980203 0.159402 0.161128 0.0326151 0.159402 0.0317034 0.980203 0.159402 0.959393 0.155117 0.159402 0.0317034 0.155117 0.0307918 7.49474 3.42621 7.33989 3.35534 3.42621 0.959393 3.35534 0.939266 7.33989 3.35534 7.18504 3.28467 3.35534 0.939266 3.28467 0.91972 0.959393 0.155117 0.939266 0.151511 0.155117 0.0307918 0.151511 0.0298586 0.939266 0.151511 0.91972 0.148522 0.151511 0.0298586 0.148522 0.0289254 7.18504 3.28467 7.03019 3.2139 3.28467 0.91972 3.2139 0.899998 7.03019 3.2139 6.87534 3.14303 3.2139 0.899998 3.14303 0.880127 0.91972 0.148522 0.899998 0.145538 0.148522 0.0289254 0.145538 0.0286673 0.899998 0.145538 0.880127 0.142558 0.145538 0.0286673 0.142558 0.0284092 6.87534 3.14303 6.72049 3.07215 3.14303 0.880127 3.07215 0.860311 6.72049 3.07215 6.56564 3.00156 3.07215 0.860311 3.00156 0.840781 0.880127 0.142558 0.860311 0.139617 0.142558 0.0284092 0.139617 0.0282257 0.860311 0.139617 0.840781 0.136895 0.139617 0.0282257 0.136895 0.0280422 6.56564 3.00156 6.41079 2.93102 3.00156 0.840781 2.93102 0.821546 6.41079 2.93102 6.25594 2.85857 2.93102 0.821546 2.85857 0.798964 0.840781 0.136895 0.821546 0.134233 0.136895 0.0280422 0.134233 0.0280121 0.821546 0.134233 0.798964 0.129901 0.134233 0.0280121 0.129901 0.0279819 6.25594 2.85857 6.10109 2.78387 2.85857 0.798964 2.78387 0.775347 6.10109 2.78387 5.94624 2.74288 2.78387 0.775347 2.74288 0.785279 0.798964 0.129901 0.775347 0.12443 0.129901 0.0279819 0.12443 0.0263984 0.775347 0.12443 0.785279 0.131555 0.12443 0.0263984 0.131555 0.0248149 5.94624 5.79139 2.74292 2.82617 5.79139 5.63654 2.82617 2.98102 2.74292 2.82617 0.784649 0.875627 2.82617 2.98102 0.875627 1.01613 0.784649 0.875627 0.1297 0.165912 0.875627 1.01613 0.165912 0.211695 0.1297 0.165912 0.0229068 0.0196539 0.165912 0.211695 0.0196539 0.016401 5.32684 5.17199 3.03189 3.00707 5.17199 5.01714 3.00707 2.96316 3.03189 3.00707 1.09619 1.13487 3.00707 2.96316 1.13487 1.17188 5.63654 5.48169 2.98102 3.03702 5.48169 5.32684 3.03702 3.03189 2.98102 3.03702 1.01613 1.08187 3.03702 3.03189 1.08187 1.09619 1.01613 1.08187 0.211695 0.262825 1.08187 1.09619 0.262825 0.336262 0.211695 0.262825 0.016401 0.0140483 0.262825 0.336262 0.0140483 0.0116955 1.17188 1.16166 0.414047 0.34014 1.16166 1.03657 0.34014 0.536781 0.414047 0.34014 0.0284467 0.0327206 0.34014 0.536781 0.0327206 0.0369946 0.785279 0.131555 0.876472 0.168039 0.131555 0.0248149 0.168039 0.0211595 0.876472 0.168039 1.01713 0.213662 0.168039 0.0211595 0.213662 0.0175042 5.01714 4.86229 2.96316 2.87365 4.86229 4.70744 2.87365 2.872 2.96316 2.87365 1.17188 1.16166 2.87365 2.872 1.16166 1.03657 1.09619 1.13487 0.336262 0.392683 1.13487 1.17188 0.392683 0.414047 0.336262 0.392683 0.0116955 0.0200711 0.392683 0.414047 0.0200711 0.0284467 4.39774 4.24289 2.62502 2.2894 4.24289 4.08804 2.2894 2.22169 2.62502 2.2894 0.85229 0.803142 2.2894 2.22169 0.803142 0.662102 5.94624 2.74288 5.79139 2.82626 2.74288 0.785279 2.82626 0.876472 5.79139 2.82626 5.63654 2.98138 2.82626 0.876472 2.98138 1.01713 -0.107164 -0.133338 -0.270436 -0.288808 -0.133338 -0.159513 -0.288808 -0.30718 -0.270436 -0.288808 -0.433709 -0.444278 -0.288808 -0.30718 -0.444278 -0.454847 0.85229 0.803142 0.437576 0.148382 0.803142 0.662102 0.148382 0.147824 0.437576 0.148382 0.0228624 0.00748802 0.148382 0.147824 0.00748802 -0.00788639 5.63654 2.98138 5.48169 3.03781 2.98138 1.01713 3.03781 1.08327 5.48169 3.03781 5.32684 3.0333 3.03781 1.08327 3.0333 1.09832 1.01713 0.213662 1.08327 0.26441 0.213662 0.0175042 0.26441 0.0132719 1.08327 0.26441 1.09832 0.336737 0.26441 0.0132719 0.336737 0.00903947 5.32684 3.0333 5.17199 3.00828 3.0333 1.09832 3.00828 1.13624 5.17199 3.00828 5.01714 2.96085 3.00828 1.13624 2.96085 1.1668 1.09832 0.336737 1.13624 0.391459 0.336737 0.00903947 0.391459 0.0119492 1.13624 0.391459 1.1668 0.401716 0.391459 0.0119492 0.401716 0.0148589 1.1668 0.401716 1.13559 0.296052 0.401716 0.0148589 0.296052 -0.0461523 1.13559 0.296052 0.958901 0.425869 0.296052 -0.0461523 0.425869 -0.107164 5.01714 2.96085 4.86229 2.86115 2.96085 1.1668 2.86115 1.13559 4.86229 2.86115 4.70744 2.83317 2.86115 1.13559 2.83317 0.958901 -0.433709 -0.444278 -0.441132 -0.496267 -0.444278 -0.454847 -0.496267 -0.551402 -0.441132 -0.496267 -0.448555 -0.548255 -0.496267 -0.551402 -0.548255 -0.647956 4.08804 3.93319 2.22169 2.17671 3.93319 3.77834 2.17671 2.16666 2.22169 2.17671 0.662102 0.673786 2.17671 2.16666 0.673786 0.769354 1.42942 0.490434 1.69975 0.830256 0.490434 -0.448555 0.830256 -0.0392363 1.69975 0.830256 1.97007 1.17008 0.830256 -0.0392363 1.17008 0.370082 0.662102 0.673786 0.147824 0.148526 0.673786 0.769354 0.148526 0.181778 0.147824 0.148526 -0.00788639 -0.0636783 0.148526 0.181778 -0.0636783 -0.11947 4.70744 4.55259 2.872 2.74851 4.55259 4.39774 2.74851 2.62502 2.872 2.74851 1.03657 0.944428 2.74851 2.62502 0.944428 0.85229 1.03657 0.944428 0.536781 0.487178 0.944428 0.85229 0.487178 0.437576 0.536781 0.487178 0.0369946 0.0299285 0.487178 0.43757